VARIABLES = "X/R","Y/R","Z/R","R/R","Mach","Pres","Temp","Rho","Theta", "Gamma", "Massflow","J"
TITLE = "Streamline Data file"
text  x=5  y=93   t="Streamline Data"
zone t="MassFlow % = 0" I = 16 J = 1 K = 1
0.785514	0.0	0.0	0	1.5	83.3053	3521.58	0.00148362	0	1.27	0	0
0.589546	0.0	0.0	0	1.3682	100.517	3665.04	0.00172008	0	1.27	0	3
0.608278	0.0	0.0	0	1.36013	101.647	3673.76	0.00173529	0	1.27	0	6
0.649139	0.0	0.0	0	1.35447	102.445	3679.87	0.001746	0	1.27	0	9
0.713014	0.0	0.0	0	1.34988	103.094	3684.82	0.0017547	0	1.27	0	12
0.801682	0.0	0.0	0	1.42926	92.2525	3598.79	0.00160771	0	1.27	0	15
0.914013	0.0	0.0	0	1.51746	81.2001	3502.47	0.00145401	0	1.27	0	18
1.04818	0.0	0.0	0	1.63636	67.9443	3372.24	0.00126363	0	1.27	0	21
1.20912	0.0	0.0	0	1.75923	56.1494	3238.28	0.00108747	0	1.27	0	24
1.40555	0.0	0.0	0	1.91039	44.0763	3075.82	0.000898733	0	1.27	0	27
1.65037	0.0	0.0	0	2.08544	33.0293	2892.82	0.000716085	0	1.27	0	30
1.96493	0.0	0.0	0	2.29759	23.0886	2680.79	0.00054016	0	1.27	0	33
2.38515	0.0	0.0	0	2.55488	14.8474	2440.6	0.000381541	0	1.27	0	36
2.97662	0.0	0.0	0	2.87592	8.52769	2169.2	0.000246558	0	1.27	0	39
3.86941	0.0	0.0	0	3.28712	4.21454	1867.35	0.00014155	0	1.27	0	42
4.12219	0.0	0.0	0	3.39002	3.54684	1799.63	0.000123541	0	1.27	0	43
zone t="MassFlow % = 3.33333" I = 22 J = 1 K = 37 
0.66322	0	0.193951	0.193951	1.41861	93.6597	3610.39	0.00162699	1.76345	1.27	0.197016	0
0.437714	0	0.18665	0.18665	1.21998	122.599	3823.09	0.00201122	0	1.27	0.197016	3
0.460487	0	0.186162	0.186162	1.2112	123.993	3832.29	0.0020292	0	1.27	0.197016	6
0.500666	0	0.186293	0.186293	1.22635	121.594	3816.41	0.00199823	0.171887	1.27	0.197016	9
0.555678	0	0.186912	0.186912	1.26332	115.857	3777.4	0.00192361	0.687268	1.27	0.197016	12
0.624813	0	0.188207	0.188207	1.31202	108.557	3725.49	0.00182752	1.31763	1.27	0.197016	15
0.708581	0	0.190678	0.190678	1.37438	99.6588	3658.36	0.0017085	2.01087	1.27	0.197016	18
0.808683	0	0.194759	0.194759	1.45544	88.8635	3570.27	0.00156102	2.60216	1.27	0.197016	21
0.927953	0	0.201036	0.201036	1.54614	77.8329	3471.06	0.00140632	3.438	1.27	0.197016	24
1.07101	0	0.210163	0.210163	1.66887	64.6406	3336.69	0.001215	3.80066	1.27	0.197016	27
1.24614	0	0.222315	0.222315	1.80983	51.8262	3183.54	0.00102097	4.25676	1.27	0.197016	30
1.46399	0	0.239563	0.239563	1.97474	39.684	3007.83	0.000827405	4.822	1.27	0.197016	33
1.74244	0	0.264767	0.264767	2.17334	28.5045	2803.56	0.000637637	5.41946	1.27	0.197016	36
2.11433	0	0.301918	0.301918	2.41794	18.8003	2566.03	0.000459444	6.02213	1.27	0.197016	39
2.63667	0	0.359965	0.359965	2.72496	11.0756	2292.91	0.000302878	6.64	1.27	0.197016	42
2.88105	0	0.389185	0.389185	2.84305	9.02689	2195.53	0.000257847	6.54143	1.27	0.197016	45
3.06912	0	0.407061	0.407061	2.87374	8.56393	2170.98	0.000247363	5.10618	1.27	0.197016	48
3.30564	0	0.422707	0.422707	2.90884	8.05957	2143.2	0.000235824	3.512	1.27	0.197016	51
3.55363	0	0.431798	0.431798	2.94106	7.62361	2118.03	0.000225723	2.03912	1.27	0.197016	54
3.81162	0	0.434627	0.434627	2.96869	7.26948	2096.72	0.000217425	0.696508	1.27	0.197016	57
4.07752	0	0.43256	0.43256	2.97654	7.1704	2090.68	0.000215095	0.0459452	1.27	0.197016	60
4.12219	0	0.431932	0.431932	2.97525	7.18611	2091.66	0.000215904	0.0125775	1.27	0.197016	105
0.66322	0.0336792	0.191004	0.193951	1.41861	93.6597	3610.39	0.00162699	1.76345	1.27	0.197016	0
0.437714	0.0324114	0.183814	0.18665	1.21998	122.599	3823.09	0.00201122	0	1.27	0.197016	3
0.460487	0.0323267	0.183334	0.186162	1.2112	123.993	3832.29	0.0020292	0	1.27	0.197016	6
0.500666	0.0323495	0.183463	0.186293	1.22635	121.594	3816.41	0.00199823	0.171887	1.27	0.197016	9
0.555678	0.0324569	0.184072	0.186912	1.26332	115.857	3777.4	0.00192361	0.687268	1.27	0.197016	12
0.624813	0.0326819	0.185348	0.188207	1.31202	108.557	3725.49	0.00182752	1.31763	1.27	0.197016	15
0.708581	0.0331109	0.187781	0.190678	1.37438	99.6588	3658.36	0.0017085	2.01087	1.27	0.197016	18
0.808683	0.0338196	0.1918	0.194759	1.45544	88.8635	3570.27	0.00156102	2.60216	1.27	0.197016	21
0.927953	0.0349095	0.197982	0.201036	1.54614	77.8329	3471.06	0.00140632	3.438	1.27	0.197016	24
1.07101	0.0364944	0.20697	0.210163	1.66887	64.6406	3336.69	0.001215	3.80066	1.27	0.197016	27
1.24614	0.0386045	0.218937	0.222315	1.80983	51.8262	3183.54	0.00102097	4.25676	1.27	0.197016	30
1.46399	0.0415996	0.235923	0.239563	1.97474	39.684	3007.83	0.000827405	4.822	1.27	0.197016	33
1.74244	0.0459764	0.260745	0.264767	2.17334	28.5045	2803.56	0.000637637	5.41946	1.27	0.197016	36
2.11433	0.0524275	0.297331	0.301918	2.41794	18.8003	2566.03	0.000459444	6.02213	1.27	0.197016	39
2.63667	0.0625073	0.354497	0.359965	2.72496	11.0756	2292.91	0.000302878	6.64	1.27	0.197016	42
2.88105	0.0675813	0.383273	0.389185	2.84305	9.02689	2195.53	0.000257847	6.54143	1.27	0.197016	45
3.06912	0.0706855	0.400877	0.407061	2.87374	8.56393	2170.98	0.000247363	5.10618	1.27	0.197016	48
3.30564	0.0734022	0.416285	0.422707	2.90884	8.05957	2143.2	0.000235824	3.512	1.27	0.197016	51
3.55363	0.074981	0.425238	0.431798	2.94106	7.62361	2118.03	0.000225723	2.03912	1.27	0.197016	54
3.81162	0.0754722	0.428024	0.434627	2.96869	7.26948	2096.72	0.000217425	0.696508	1.27	0.197016	57
4.07752	0.0751133	0.425989	0.43256	2.97654	7.1704	2090.68	0.000215095	0.0459452	1.27	0.197016	60
4.12219	0.0750042	0.42537	0.431932	2.97525	7.18611	2091.66	0.000215904	0.0125775	1.27	0.197016	105
0.66322	0.066335	0.182254	0.193951	1.41861	93.6597	3610.39	0.00162699	1.76345	1.27	0.197016	0
0.437714	0.063838	0.175393	0.18665	1.21998	122.599	3823.09	0.00201122	0	1.27	0.197016	3
0.460487	0.0636712	0.174935	0.186162	1.2112	123.993	3832.29	0.0020292	0	1.27	0.197016	6
0.500666	0.063716	0.175058	0.186293	1.22635	121.594	3816.41	0.00199823	0.171887	1.27	0.197016	9
0.555678	0.0639277	0.17564	0.186912	1.26332	115.857	3777.4	0.00192361	0.687268	1.27	0.197016	12
0.624813	0.0643707	0.176857	0.188207	1.31202	108.557	3725.49	0.00182752	1.31763	1.27	0.197016	15
0.708581	0.0652158	0.179179	0.190678	1.37438	99.6588	3658.36	0.0017085	2.01087	1.27	0.197016	18
0.808683	0.0666116	0.183014	0.194759	1.45544	88.8635	3570.27	0.00156102	2.60216	1.27	0.197016	21
0.927953	0.0687583	0.188912	0.201036	1.54614	77.8329	3471.06	0.00140632	3.438	1.27	0.197016	24
1.07101	0.07188	0.197489	0.210163	1.66887	64.6406	3336.69	0.001215	3.80066	1.27	0.197016	27
1.24614	0.0760361	0.208907	0.222315	1.80983	51.8262	3183.54	0.00102097	4.25676	1.27	0.197016	30
1.46399	0.0819352	0.225115	0.239563	1.97474	39.684	3007.83	0.000827405	4.822	1.27	0.197016	33
1.74244	0.0905557	0.2488	0.264767	2.17334	28.5045	2803.56	0.000637637	5.41946	1.27	0.197016	36
2.11433	0.103262	0.28371	0.301918	2.41794	18.8003	2566.03	0.000459444	6.02213	1.27	0.197016	39
2.63667	0.123115	0.338257	0.359965	2.72496	11.0756	2292.91	0.000302878	6.64	1.27	0.197016	42
2.88105	0.133109	0.365715	0.389185	2.84305	9.02689	2195.53	0.000257847	6.54143	1.27	0.197016	45
3.06912	0.139223	0.382513	0.407061	2.87374	8.56393	2170.98	0.000247363	5.10618	1.27	0.197016	48
3.30564	0.144574	0.397214	0.422707	2.90884	8.05957	2143.2	0.000235824	3.512	1.27	0.197016	51
3.55363	0.147684	0.405758	0.431798	2.94106	7.62361	2118.03	0.000225723	2.03912	1.27	0.197016	54
3.81162	0.148651	0.408416	0.434627	2.96869	7.26948	2096.72	0.000217425	0.696508	1.27	0.197016	57
4.07752	0.147944	0.406474	0.43256	2.97654	7.1704	2090.68	0.000215095	0.0459452	1.27	0.197016	60
4.12219	0.147729	0.405883	0.431932	2.97525	7.18611	2091.66	0.000215904	0.0125775	1.27	0.197016	105
0.66322	0.0969753	0.167966	0.193951	1.41861	93.6597	3610.39	0.00162699	1.76345	1.27	0.197016	0
0.437714	0.0933249	0.161643	0.18665	1.21998	122.599	3823.09	0.00201122	0	1.27	0.197016	3
0.460487	0.093081	0.161221	0.186162	1.2112	123.993	3832.29	0.0020292	0	1.27	0.197016	6
0.500666	0.0931465	0.161335	0.186293	1.22635	121.594	3816.41	0.00199823	0.171887	1.27	0.197016	9
0.555678	0.093456	0.161871	0.186912	1.26332	115.857	3777.4	0.00192361	0.687268	1.27	0.197016	12
0.624813	0.0941037	0.162992	0.188207	1.31202	108.557	3725.49	0.00182752	1.31763	1.27	0.197016	15
0.708581	0.0953392	0.165132	0.190678	1.37438	99.6588	3658.36	0.0017085	2.01087	1.27	0.197016	18
0.808683	0.0973796	0.168666	0.194759	1.45544	88.8635	3570.27	0.00156102	2.60216	1.27	0.197016	21
0.927953	0.100518	0.174102	0.201036	1.54614	77.8329	3471.06	0.00140632	3.438	1.27	0.197016	24
1.07101	0.105081	0.182006	0.210163	1.66887	64.6406	3336.69	0.001215	3.80066	1.27	0.197016	27
1.24614	0.111157	0.19253	0.222315	1.80983	51.8262	3183.54	0.00102097	4.25676	1.27	0.197016	30
1.46399	0.119781	0.207467	0.239563	1.97474	39.684	3007.83	0.000827405	4.822	1.27	0.197016	33
1.74244	0.132384	0.229295	0.264767	2.17334	28.5045	2803.56	0.000637637	5.41946	1.27	0.197016	36
2.11433	0.150959	0.261469	0.301918	2.41794	18.8003	2566.03	0.000459444	6.02213	1.27	0.197016	39
2.63667	0.179983	0.311739	0.359965	2.72496	11.0756	2292.91	0.000302878	6.64	1.27	0.197016	42
2.88105	0.194593	0.337044	0.389185	2.84305	9.02689	2195.53	0.000257847	6.54143	1.27	0.197016	45
3.06912	0.203531	0.352525	0.407061	2.87374	8.56393	2170.98	0.000247363	5.10618	1.27	0.197016	48
3.30564	0.211353	0.366075	0.422707	2.90884	8.05957	2143.2	0.000235824	3.512	1.27	0.197016	51
3.55363	0.215899	0.373948	0.431798	2.94106	7.62361	2118.03	0.000225723	2.03912	1.27	0.197016	54
3.81162	0.217313	0.376398	0.434627	2.96869	7.26948	2096.72	0.000217425	0.696508	1.27	0.197016	57
4.07752	0.21628	0.374608	0.43256	2.97654	7.1704	2090.68	0.000215095	0.0459452	1.27	0.197016	60
4.12219	0.215966	0.374064	0.431932	2.97525	7.18611	2091.66	0.000215904	0.0125775	1.27	0.197016	105
0.66322	0.124669	0.148575	0.193951	1.41861	93.6597	3610.39	0.00162699	1.76345	1.27	0.197016	0
0.437714	0.119976	0.142982	0.18665	1.21998	122.599	3823.09	0.00201122	0	1.27	0.197016	3
0.460487	0.119663	0.142608	0.186162	1.2112	123.993	3832.29	0.0020292	0	1.27	0.197016	6
0.500666	0.119747	0.142709	0.186293	1.22635	121.594	3816.41	0.00199823	0.171887	1.27	0.197016	9
0.555678	0.120145	0.143183	0.186912	1.26332	115.857	3777.4	0.00192361	0.687268	1.27	0.197016	12
0.624813	0.120977	0.144175	0.188207	1.31202	108.557	3725.49	0.00182752	1.31763	1.27	0.197016	15
0.708581	0.122566	0.146068	0.190678	1.37438	99.6588	3658.36	0.0017085	2.01087	1.27	0.197016	18
0.808683	0.125189	0.149194	0.194759	1.45544	88.8635	3570.27	0.00156102	2.60216	1.27	0.197016	21
0.927953	0.129223	0.154002	0.201036	1.54614	77.8329	3471.06	0.00140632	3.438	1.27	0.197016	24
1.07101	0.13509	0.160994	0.210163	1.66887	64.6406	3336.69	0.001215	3.80066	1.27	0.197016	27
1.24614	0.142901	0.170303	0.222315	1.80983	51.8262	3183.54	0.00102097	4.25676	1.27	0.197016	30
1.46399	0.153988	0.183516	0.239563	1.97474	39.684	3007.83	0.000827405	4.822	1.27	0.197016	33
1.74244	0.170189	0.202823	0.264767	2.17334	28.5045	2803.56	0.000637637	5.41946	1.27	0.197016	36
2.11433	0.194069	0.231282	0.301918	2.41794	18.8003	2566.03	0.000459444	6.02213	1.27	0.197016	39
2.63667	0.231381	0.27575	0.359965	2.72496	11.0756	2292.91	0.000302878	6.64	1.27	0.197016	42
2.88105	0.250164	0.298133	0.389185	2.84305	9.02689	2195.53	0.000257847	6.54143	1.27	0.197016	45
3.06912	0.261654	0.311827	0.407061	2.87374	8.56393	2170.98	0.000247363	5.10618	1.27	0.197016	48
3.30564	0.271711	0.323812	0.422707	2.90884	8.05957	2143.2	0.000235824	3.512	1.27	0.197016	51
3.55363	0.277555	0.330777	0.431798	2.94106	7.62361	2118.03	0.000225723	2.03912	1.27	0.197016	54
3.81162	0.279373	0.332944	0.434627	2.96869	7.26948	2096.72	0.000217425	0.696508	1.27	0.197016	57
4.07752	0.278044	0.33136	0.43256	2.97654	7.1704	2090.68	0.000215095	0.0459452	1.27	0.197016	60
4.12219	0.277641	0.330879	0.431932	2.97525	7.18611	2091.66	0.000215904	0.0125775	1.27	0.197016	105
0.66322	0.148575	0.124669	0.193951	1.41861	93.6597	3610.39	0.00162699	1.76345	1.27	0.197016	0
0.437714	0.142982	0.119976	0.18665	1.21998	122.599	3823.09	0.00201122	0	1.27	0.197016	3
0.460487	0.142608	0.119663	0.186162	1.2112	123.993	3832.29	0.0020292	0	1.27	0.197016	6
0.500666	0.142709	0.119747	0.186293	1.22635	121.594	3816.41	0.00199823	0.171887	1.27	0.197016	9
0.555678	0.143183	0.120145	0.186912	1.26332	115.857	3777.4	0.00192361	0.687268	1.27	0.197016	12
0.624813	0.144175	0.120977	0.188207	1.31202	108.557	3725.49	0.00182752	1.31763	1.27	0.197016	15
0.708581	0.146068	0.122566	0.190678	1.37438	99.6588	3658.36	0.0017085	2.01087	1.27	0.197016	18
0.808683	0.149194	0.125189	0.194759	1.45544	88.8635	3570.27	0.00156102	2.60216	1.27	0.197016	21
0.927953	0.154002	0.129223	0.201036	1.54614	77.8329	3471.06	0.00140632	3.438	1.27	0.197016	24
1.07101	0.160994	0.13509	0.210163	1.66887	64.6406	3336.69	0.001215	3.80066	1.27	0.197016	27
1.24614	0.170303	0.142901	0.222315	1.80983	51.8262	3183.54	0.00102097	4.25676	1.27	0.197016	30
1.46399	0.183516	0.153988	0.239563	1.97474	39.684	3007.83	0.000827405	4.822	1.27	0.197016	33
1.74244	0.202823	0.170189	0.264767	2.17334	28.5045	2803.56	0.000637637	5.41946	1.27	0.197016	36
2.11433	0.231282	0.194069	0.301918	2.41794	18.8003	2566.03	0.000459444	6.02213	1.27	0.197016	39
2.63667	0.27575	0.231381	0.359965	2.72496	11.0756	2292.91	0.000302878	6.64	1.27	0.197016	42
2.88105	0.298133	0.250164	0.389185	2.84305	9.02689	2195.53	0.000257847	6.54143	1.27	0.197016	45
3.06912	0.311827	0.261654	0.407061	2.87374	8.56393	2170.98	0.000247363	5.10618	1.27	0.197016	48
3.30564	0.323812	0.271711	0.422707	2.90884	8.05957	2143.2	0.000235824	3.512	1.27	0.197016	51
3.55363	0.330777	0.277555	0.431798	2.94106	7.62361	2118.03	0.000225723	2.03912	1.27	0.197016	54
3.81162	0.332944	0.279373	0.434627	2.96869	7.26948	2096.72	0.000217425	0.696508	1.27	0.197016	57
4.07752	0.33136	0.278044	0.43256	2.97654	7.1704	2090.68	0.000215095	0.0459452	1.27	0.197016	60
4.12219	0.330879	0.277641	0.431932	2.97525	7.18611	2091.66	0.000215904	0.0125775	1.27	0.197016	105
0.66322	0.167966	0.0969753	0.193951	1.41861	93.6597	3610.39	0.00162699	1.76345	1.27	0.197016	0
0.437714	0.161643	0.0933249	0.18665	1.21998	122.599	3823.09	0.00201122	0	1.27	0.197016	3
0.460487	0.161221	0.093081	0.186162	1.2112	123.993	3832.29	0.0020292	0	1.27	0.197016	6
0.500666	0.161335	0.0931465	0.186293	1.22635	121.594	3816.41	0.00199823	0.171887	1.27	0.197016	9
0.555678	0.161871	0.093456	0.186912	1.26332	115.857	3777.4	0.00192361	0.687268	1.27	0.197016	12
0.624813	0.162992	0.0941037	0.188207	1.31202	108.557	3725.49	0.00182752	1.31763	1.27	0.197016	15
0.708581	0.165132	0.0953392	0.190678	1.37438	99.6588	3658.36	0.0017085	2.01087	1.27	0.197016	18
0.808683	0.168666	0.0973796	0.194759	1.45544	88.8635	3570.27	0.00156102	2.60216	1.27	0.197016	21
0.927953	0.174102	0.100518	0.201036	1.54614	77.8329	3471.06	0.00140632	3.438	1.27	0.197016	24
1.07101	0.182006	0.105081	0.210163	1.66887	64.6406	3336.69	0.001215	3.80066	1.27	0.197016	27
1.24614	0.19253	0.111157	0.222315	1.80983	51.8262	3183.54	0.00102097	4.25676	1.27	0.197016	30
1.46399	0.207467	0.119781	0.239563	1.97474	39.684	3007.83	0.000827405	4.822	1.27	0.197016	33
1.74244	0.229295	0.132384	0.264767	2.17334	28.5045	2803.56	0.000637637	5.41946	1.27	0.197016	36
2.11433	0.261469	0.150959	0.301918	2.41794	18.8003	2566.03	0.000459444	6.02213	1.27	0.197016	39
2.63667	0.311739	0.179983	0.359965	2.72496	11.0756	2292.91	0.000302878	6.64	1.27	0.197016	42
2.88105	0.337044	0.194593	0.389185	2.84305	9.02689	2195.53	0.000257847	6.54143	1.27	0.197016	45
3.06912	0.352525	0.203531	0.407061	2.87374	8.56393	2170.98	0.000247363	5.10618	1.27	0.197016	48
3.30564	0.366075	0.211353	0.422707	2.90884	8.05957	2143.2	0.000235824	3.512	1.27	0.197016	51
3.55363	0.373948	0.215899	0.431798	2.94106	7.62361	2118.03	0.000225723	2.03912	1.27	0.197016	54
3.81162	0.376398	0.217313	0.434627	2.96869	7.26948	2096.72	0.000217425	0.696508	1.27	0.197016	57
4.07752	0.374608	0.21628	0.43256	2.97654	7.1704	2090.68	0.000215095	0.0459452	1.27	0.197016	60
4.12219	0.374064	0.215966	0.431932	2.97525	7.18611	2091.66	0.000215904	0.0125775	1.27	0.197016	105
0.66322	0.182254	0.066335	0.193951	1.41861	93.6597	3610.39	0.00162699	1.76345	1.27	0.197016	0
0.437714	0.175393	0.063838	0.18665	1.21998	122.599	3823.09	0.00201122	0	1.27	0.197016	3
0.460487	0.174935	0.0636712	0.186162	1.2112	123.993	3832.29	0.0020292	0	1.27	0.197016	6
0.500666	0.175058	0.063716	0.186293	1.22635	121.594	3816.41	0.00199823	0.171887	1.27	0.197016	9
0.555678	0.17564	0.0639277	0.186912	1.26332	115.857	3777.4	0.00192361	0.687268	1.27	0.197016	12
0.624813	0.176857	0.0643707	0.188207	1.31202	108.557	3725.49	0.00182752	1.31763	1.27	0.197016	15
0.708581	0.179179	0.0652158	0.190678	1.37438	99.6588	3658.36	0.0017085	2.01087	1.27	0.197016	18
0.808683	0.183014	0.0666116	0.194759	1.45544	88.8635	3570.27	0.00156102	2.60216	1.27	0.197016	21
0.927953	0.188912	0.0687583	0.201036	1.54614	77.8329	3471.06	0.00140632	3.438	1.27	0.197016	24
1.07101	0.197489	0.07188	0.210163	1.66887	64.6406	3336.69	0.001215	3.80066	1.27	0.197016	27
1.24614	0.208907	0.0760361	0.222315	1.80983	51.8262	3183.54	0.00102097	4.25676	1.27	0.197016	30
1.46399	0.225115	0.0819352	0.239563	1.97474	39.684	3007.83	0.000827405	4.822	1.27	0.197016	33
1.74244	0.2488	0.0905557	0.264767	2.17334	28.5045	2803.56	0.000637637	5.41946	1.27	0.197016	36
2.11433	0.28371	0.103262	0.301918	2.41794	18.8003	2566.03	0.000459444	6.02213	1.27	0.197016	39
2.63667	0.338257	0.123115	0.359965	2.72496	11.0756	2292.91	0.000302878	6.64	1.27	0.197016	42
2.88105	0.365715	0.133109	0.389185	2.84305	9.02689	2195.53	0.000257847	6.54143	1.27	0.197016	45
3.06912	0.382513	0.139223	0.407061	2.87374	8.56393	2170.98	0.000247363	5.10618	1.27	0.197016	48
3.30564	0.397214	0.144574	0.422707	2.90884	8.05957	2143.2	0.000235824	3.512	1.27	0.197016	51
3.55363	0.405758	0.147684	0.431798	2.94106	7.62361	2118.03	0.000225723	2.03912	1.27	0.197016	54
3.81162	0.408416	0.148651	0.434627	2.96869	7.26948	2096.72	0.000217425	0.696508	1.27	0.197016	57
4.07752	0.406474	0.147944	0.43256	2.97654	7.1704	2090.68	0.000215095	0.0459452	1.27	0.197016	60
4.12219	0.405883	0.147729	0.431932	2.97525	7.18611	2091.66	0.000215904	0.0125775	1.27	0.197016	105
0.66322	0.191004	0.0336792	0.193951	1.41861	93.6597	3610.39	0.00162699	1.76345	1.27	0.197016	0
0.437714	0.183814	0.0324114	0.18665	1.21998	122.599	3823.09	0.00201122	0	1.27	0.197016	3
0.460487	0.183334	0.0323267	0.186162	1.2112	123.993	3832.29	0.0020292	0	1.27	0.197016	6
0.500666	0.183463	0.0323495	0.186293	1.22635	121.594	3816.41	0.00199823	0.171887	1.27	0.197016	9
0.555678	0.184072	0.0324569	0.186912	1.26332	115.857	3777.4	0.00192361	0.687268	1.27	0.197016	12
0.624813	0.185348	0.0326819	0.188207	1.31202	108.557	3725.49	0.00182752	1.31763	1.27	0.197016	15
0.708581	0.187781	0.0331109	0.190678	1.37438	99.6588	3658.36	0.0017085	2.01087	1.27	0.197016	18
0.808683	0.1918	0.0338196	0.194759	1.45544	88.8635	3570.27	0.00156102	2.60216	1.27	0.197016	21
0.927953	0.197982	0.0349095	0.201036	1.54614	77.8329	3471.06	0.00140632	3.438	1.27	0.197016	24
1.07101	0.20697	0.0364944	0.210163	1.66887	64.6406	3336.69	0.001215	3.80066	1.27	0.197016	27
1.24614	0.218937	0.0386045	0.222315	1.80983	51.8262	3183.54	0.00102097	4.25676	1.27	0.197016	30
1.46399	0.235923	0.0415996	0.239563	1.97474	39.684	3007.83	0.000827405	4.822	1.27	0.197016	33
1.74244	0.260745	0.0459764	0.264767	2.17334	28.5045	2803.56	0.000637637	5.41946	1.27	0.197016	36
2.11433	0.297331	0.0524275	0.301918	2.41794	18.8003	2566.03	0.000459444	6.02213	1.27	0.197016	39
2.63667	0.354497	0.0625073	0.359965	2.72496	11.0756	2292.91	0.000302878	6.64	1.27	0.197016	42
2.88105	0.383273	0.0675813	0.389185	2.84305	9.02689	2195.53	0.000257847	6.54143	1.27	0.197016	45
3.06912	0.400877	0.0706855	0.407061	2.87374	8.56393	2170.98	0.000247363	5.10618	1.27	0.197016	48
3.30564	0.416285	0.0734022	0.422707	2.90884	8.05957	2143.2	0.000235824	3.512	1.27	0.197016	51
3.55363	0.425238	0.074981	0.431798	2.94106	7.62361	2118.03	0.000225723	2.03912	1.27	0.197016	54
3.81162	0.428024	0.0754722	0.434627	2.96869	7.26948	2096.72	0.000217425	0.696508	1.27	0.197016	57
4.07752	0.425989	0.0751133	0.43256	2.97654	7.1704	2090.68	0.000215095	0.0459452	1.27	0.197016	60
4.12219	0.42537	0.0750042	0.431932	2.97525	7.18611	2091.66	0.000215904	0.0125775	1.27	0.197016	105
0.66322	0.193951	1.1876e-17	0.193951	1.41861	93.6597	3610.39	0.00162699	1.76345	1.27	0.197016	0
0.437714	0.18665	1.1429e-17	0.18665	1.21998	122.599	3823.09	0.00201122	0	1.27	0.197016	3
0.460487	0.186162	1.13991e-17	0.186162	1.2112	123.993	3832.29	0.0020292	0	1.27	0.197016	6
0.500666	0.186293	1.14072e-17	0.186293	1.22635	121.594	3816.41	0.00199823	0.171887	1.27	0.197016	9
0.555678	0.186912	1.14451e-17	0.186912	1.26332	115.857	3777.4	0.00192361	0.687268	1.27	0.197016	12
0.624813	0.188207	1.15244e-17	0.188207	1.31202	108.557	3725.49	0.00182752	1.31763	1.27	0.197016	15
0.708581	0.190678	1.16757e-17	0.190678	1.37438	99.6588	3658.36	0.0017085	2.01087	1.27	0.197016	18
0.808683	0.194759	1.19256e-17	0.194759	1.45544	88.8635	3570.27	0.00156102	2.60216	1.27	0.197016	21
0.927953	0.201036	1.23099e-17	0.201036	1.54614	77.8329	3471.06	0.00140632	3.438	1.27	0.197016	24
1.07101	0.210163	1.28688e-17	0.210163	1.66887	64.6406	3336.69	0.001215	3.80066	1.27	0.197016	27
1.24614	0.222315	1.36128e-17	0.222315	1.80983	51.8262	3183.54	0.00102097	4.25676	1.27	0.197016	30
1.46399	0.239563	1.4669e-17	0.239563	1.97474	39.684	3007.83	0.000827405	4.822	1.27	0.197016	33
1.74244	0.264767	1.62123e-17	0.264767	2.17334	28.5045	2803.56	0.000637637	5.41946	1.27	0.197016	36
2.11433	0.301918	1.84871e-17	0.301918	2.41794	18.8003	2566.03	0.000459444	6.02213	1.27	0.197016	39
2.63667	0.359965	2.20415e-17	0.359965	2.72496	11.0756	2292.91	0.000302878	6.64	1.27	0.197016	42
2.88105	0.389185	2.38307e-17	0.389185	2.84305	9.02689	2195.53	0.000257847	6.54143	1.27	0.197016	45
3.06912	0.407061	2.49253e-17	0.407061	2.87374	8.56393	2170.98	0.000247363	5.10618	1.27	0.197016	48
3.30564	0.422707	2.58833e-17	0.422707	2.90884	8.05957	2143.2	0.000235824	3.512	1.27	0.197016	51
3.55363	0.431798	2.644e-17	0.431798	2.94106	7.62361	2118.03	0.000225723	2.03912	1.27	0.197016	54
3.81162	0.434627	2.66132e-17	0.434627	2.96869	7.26948	2096.72	0.000217425	0.696508	1.27	0.197016	57
4.07752	0.43256	2.64867e-17	0.43256	2.97654	7.1704	2090.68	0.000215095	0.0459452	1.27	0.197016	60
4.12219	0.431932	2.64482e-17	0.431932	2.97525	7.18611	2091.66	0.000215904	0.0125775	1.27	0.197016	105
0.66322	0.191004	-0.0336792	0.193951	1.41861	93.6597	3610.39	0.00162699	1.76345	1.27	0.197016	0
0.437714	0.183814	-0.0324114	0.18665	1.21998	122.599	3823.09	0.00201122	0	1.27	0.197016	3
0.460487	0.183334	-0.0323267	0.186162	1.2112	123.993	3832.29	0.0020292	0	1.27	0.197016	6
0.500666	0.183463	-0.0323495	0.186293	1.22635	121.594	3816.41	0.00199823	0.171887	1.27	0.197016	9
0.555678	0.184072	-0.0324569	0.186912	1.26332	115.857	3777.4	0.00192361	0.687268	1.27	0.197016	12
0.624813	0.185348	-0.0326819	0.188207	1.31202	108.557	3725.49	0.00182752	1.31763	1.27	0.197016	15
0.708581	0.187781	-0.0331109	0.190678	1.37438	99.6588	3658.36	0.0017085	2.01087	1.27	0.197016	18
0.808683	0.1918	-0.0338196	0.194759	1.45544	88.8635	3570.27	0.00156102	2.60216	1.27	0.197016	21
0.927953	0.197982	-0.0349095	0.201036	1.54614	77.8329	3471.06	0.00140632	3.438	1.27	0.197016	24
1.07101	0.20697	-0.0364944	0.210163	1.66887	64.6406	3336.69	0.001215	3.80066	1.27	0.197016	27
1.24614	0.218937	-0.0386045	0.222315	1.80983	51.8262	3183.54	0.00102097	4.25676	1.27	0.197016	30
1.46399	0.235923	-0.0415996	0.239563	1.97474	39.684	3007.83	0.000827405	4.822	1.27	0.197016	33
1.74244	0.260745	-0.0459764	0.264767	2.17334	28.5045	2803.56	0.000637637	5.41946	1.27	0.197016	36
2.11433	0.297331	-0.0524275	0.301918	2.41794	18.8003	2566.03	0.000459444	6.02213	1.27	0.197016	39
2.63667	0.354497	-0.0625073	0.359965	2.72496	11.0756	2292.91	0.000302878	6.64	1.27	0.197016	42
2.88105	0.383273	-0.0675813	0.389185	2.84305	9.02689	2195.53	0.000257847	6.54143	1.27	0.197016	45
3.06912	0.400877	-0.0706855	0.407061	2.87374	8.56393	2170.98	0.000247363	5.10618	1.27	0.197016	48
3.30564	0.416285	-0.0734022	0.422707	2.90884	8.05957	2143.2	0.000235824	3.512	1.27	0.197016	51
3.55363	0.425238	-0.074981	0.431798	2.94106	7.62361	2118.03	0.000225723	2.03912	1.27	0.197016	54
3.81162	0.428024	-0.0754722	0.434627	2.96869	7.26948	2096.72	0.000217425	0.696508	1.27	0.197016	57
4.07752	0.425989	-0.0751133	0.43256	2.97654	7.1704	2090.68	0.000215095	0.0459452	1.27	0.197016	60
4.12219	0.42537	-0.0750042	0.431932	2.97525	7.18611	2091.66	0.000215904	0.0125775	1.27	0.197016	105
0.66322	0.182254	-0.066335	0.193951	1.41861	93.6597	3610.39	0.00162699	1.76345	1.27	0.197016	0
0.437714	0.175393	-0.063838	0.18665	1.21998	122.599	3823.09	0.00201122	0	1.27	0.197016	3
0.460487	0.174935	-0.0636712	0.186162	1.2112	123.993	3832.29	0.0020292	0	1.27	0.197016	6
0.500666	0.175058	-0.063716	0.186293	1.22635	121.594	3816.41	0.00199823	0.171887	1.27	0.197016	9
0.555678	0.17564	-0.0639277	0.186912	1.26332	115.857	3777.4	0.00192361	0.687268	1.27	0.197016	12
0.624813	0.176857	-0.0643707	0.188207	1.31202	108.557	3725.49	0.00182752	1.31763	1.27	0.197016	15
0.708581	0.179179	-0.0652158	0.190678	1.37438	99.6588	3658.36	0.0017085	2.01087	1.27	0.197016	18
0.808683	0.183014	-0.0666116	0.194759	1.45544	88.8635	3570.27	0.00156102	2.60216	1.27	0.197016	21
0.927953	0.188912	-0.0687583	0.201036	1.54614	77.8329	3471.06	0.00140632	3.438	1.27	0.197016	24
1.07101	0.197489	-0.07188	0.210163	1.66887	64.6406	3336.69	0.001215	3.80066	1.27	0.197016	27
1.24614	0.208907	-0.0760361	0.222315	1.80983	51.8262	3183.54	0.00102097	4.25676	1.27	0.197016	30
1.46399	0.225115	-0.0819352	0.239563	1.97474	39.684	3007.83	0.000827405	4.822	1.27	0.197016	33
1.74244	0.2488	-0.0905557	0.264767	2.17334	28.5045	2803.56	0.000637637	5.41946	1.27	0.197016	36
2.11433	0.28371	-0.103262	0.301918	2.41794	18.8003	2566.03	0.000459444	6.02213	1.27	0.197016	39
2.63667	0.338257	-0.123115	0.359965	2.72496	11.0756	2292.91	0.000302878	6.64	1.27	0.197016	42
2.88105	0.365715	-0.133109	0.389185	2.84305	9.02689	2195.53	0.000257847	6.54143	1.27	0.197016	45
3.06912	0.382513	-0.139223	0.407061	2.87374	8.56393	2170.98	0.000247363	5.10618	1.27	0.197016	48
3.30564	0.397214	-0.144574	0.422707	2.90884	8.05957	2143.2	0.000235824	3.512	1.27	0.197016	51
3.55363	0.405758	-0.147684	0.431798	2.94106	7.62361	2118.03	0.000225723	2.03912	1.27	0.197016	54
3.81162	0.408416	-0.148651	0.434627	2.96869	7.26948	2096.72	0.000217425	0.696508	1.27	0.197016	57
4.07752	0.406474	-0.147944	0.43256	2.97654	7.1704	2090.68	0.000215095	0.0459452	1.27	0.197016	60
4.12219	0.405883	-0.147729	0.431932	2.97525	7.18611	2091.66	0.000215904	0.0125775	1.27	0.197016	105
0.66322	0.167966	-0.0969753	0.193951	1.41861	93.6597	3610.39	0.00162699	1.76345	1.27	0.197016	0
0.437714	0.161643	-0.0933249	0.18665	1.21998	122.599	3823.09	0.00201122	0	1.27	0.197016	3
0.460487	0.161221	-0.093081	0.186162	1.2112	123.993	3832.29	0.0020292	0	1.27	0.197016	6
0.500666	0.161335	-0.0931465	0.186293	1.22635	121.594	3816.41	0.00199823	0.171887	1.27	0.197016	9
0.555678	0.161871	-0.093456	0.186912	1.26332	115.857	3777.4	0.00192361	0.687268	1.27	0.197016	12
0.624813	0.162992	-0.0941037	0.188207	1.31202	108.557	3725.49	0.00182752	1.31763	1.27	0.197016	15
0.708581	0.165132	-0.0953392	0.190678	1.37438	99.6588	3658.36	0.0017085	2.01087	1.27	0.197016	18
0.808683	0.168666	-0.0973796	0.194759	1.45544	88.8635	3570.27	0.00156102	2.60216	1.27	0.197016	21
0.927953	0.174102	-0.100518	0.201036	1.54614	77.8329	3471.06	0.00140632	3.438	1.27	0.197016	24
1.07101	0.182006	-0.105081	0.210163	1.66887	64.6406	3336.69	0.001215	3.80066	1.27	0.197016	27
1.24614	0.19253	-0.111157	0.222315	1.80983	51.8262	3183.54	0.00102097	4.25676	1.27	0.197016	30
1.46399	0.207467	-0.119781	0.239563	1.97474	39.684	3007.83	0.000827405	4.822	1.27	0.197016	33
1.74244	0.229295	-0.132384	0.264767	2.17334	28.5045	2803.56	0.000637637	5.41946	1.27	0.197016	36
2.11433	0.261469	-0.150959	0.301918	2.41794	18.8003	2566.03	0.000459444	6.02213	1.27	0.197016	39
2.63667	0.311739	-0.179983	0.359965	2.72496	11.0756	2292.91	0.000302878	6.64	1.27	0.197016	42
2.88105	0.337044	-0.194593	0.389185	2.84305	9.02689	2195.53	0.000257847	6.54143	1.27	0.197016	45
3.06912	0.352525	-0.203531	0.407061	2.87374	8.56393	2170.98	0.000247363	5.10618	1.27	0.197016	48
3.30564	0.366075	-0.211353	0.422707	2.90884	8.05957	2143.2	0.000235824	3.512	1.27	0.197016	51
3.55363	0.373948	-0.215899	0.431798	2.94106	7.62361	2118.03	0.000225723	2.03912	1.27	0.197016	54
3.81162	0.376398	-0.217313	0.434627	2.96869	7.26948	2096.72	0.000217425	0.696508	1.27	0.197016	57
4.07752	0.374608	-0.21628	0.43256	2.97654	7.1704	2090.68	0.000215095	0.0459452	1.27	0.197016	60
4.12219	0.374064	-0.215966	0.431932	2.97525	7.18611	2091.66	0.000215904	0.0125775	1.27	0.197016	105
0.66322	0.148575	-0.124669	0.193951	1.41861	93.6597	3610.39	0.00162699	1.76345	1.27	0.197016	0
0.437714	0.142982	-0.119976	0.18665	1.21998	122.599	3823.09	0.00201122	0	1.27	0.197016	3
0.460487	0.142608	-0.119663	0.186162	1.2112	123.993	3832.29	0.0020292	0	1.27	0.197016	6
0.500666	0.142709	-0.119747	0.186293	1.22635	121.594	3816.41	0.00199823	0.171887	1.27	0.197016	9
0.555678	0.143183	-0.120145	0.186912	1.26332	115.857	3777.4	0.00192361	0.687268	1.27	0.197016	12
0.624813	0.144175	-0.120977	0.188207	1.31202	108.557	3725.49	0.00182752	1.31763	1.27	0.197016	15
0.708581	0.146068	-0.122566	0.190678	1.37438	99.6588	3658.36	0.0017085	2.01087	1.27	0.197016	18
0.808683	0.149194	-0.125189	0.194759	1.45544	88.8635	3570.27	0.00156102	2.60216	1.27	0.197016	21
0.927953	0.154002	-0.129223	0.201036	1.54614	77.8329	3471.06	0.00140632	3.438	1.27	0.197016	24
1.07101	0.160994	-0.13509	0.210163	1.66887	64.6406	3336.69	0.001215	3.80066	1.27	0.197016	27
1.24614	0.170303	-0.142901	0.222315	1.80983	51.8262	3183.54	0.00102097	4.25676	1.27	0.197016	30
1.46399	0.183516	-0.153988	0.239563	1.97474	39.684	3007.83	0.000827405	4.822	1.27	0.197016	33
1.74244	0.202823	-0.170189	0.264767	2.17334	28.5045	2803.56	0.000637637	5.41946	1.27	0.197016	36
2.11433	0.231282	-0.194069	0.301918	2.41794	18.8003	2566.03	0.000459444	6.02213	1.27	0.197016	39
2.63667	0.27575	-0.231381	0.359965	2.72496	11.0756	2292.91	0.000302878	6.64	1.27	0.197016	42
2.88105	0.298133	-0.250164	0.389185	2.84305	9.02689	2195.53	0.000257847	6.54143	1.27	0.197016	45