VARIABLES = "X/R","R/R","Mach","Theta","Massflow","I",
TITLE = "RRC Contours"
text  x=5  y=93  t="MOC Grid Data"
zone t="J = 0"
0	1	1.13196	0	5.91048	0
5.00773e-05	0.999906	1.13199	0.00332523	5.90936	1
0.000200334	0.999622	1.13209	0.013282	5.90603	2
0.000450916	0.99915	1.13226	0.0298202	5.90047	3
0.0008021	0.99849	1.13249	0.0528597	5.8927	4
0.00125429	0.997641	1.13279	0.0822912	5.88271	5
0.00180804	0.996604	1.13316	0.117977	5.87052	6
0.00246399	0.99538	1.13359	0.15975	5.85614	7
0.00322293	0.993968	1.1341	0.207418	5.83957	8
0.00408576	0.992369	1.13467	0.260761	5.82083	9
0.0050535	0.990583	1.1353	0.319534	5.79993	10
0.00612727	0.988612	1.136	0.38347	5.77689	11
0.00730828	0.986455	1.13677	0.452279	5.75172	12
0.00859784	0.984114	1.13761	0.525649	5.72445	13
0.00999736	0.981589	1.13851	0.60325	5.69509	14
0.0115083	0.978882	1.13948	0.684737	5.66367	15
0.0131322	0.975991	1.14051	0.769747	5.63022	16
0.0148707	0.97292	1.14161	0.857906	5.59475	17
0.0167254	0.969669	1.14278	0.948828	5.55729	18
0.0186979	0.966238	1.144	1.04212	5.51788	19
0.0207901	0.962629	1.14529	1.13738	5.47655	20
0.0230035	0.958842	1.14664	1.23421	5.43332	21
0.0253399	0.954881	1.14804	1.3322	5.38823	22
0.0278011	0.950744	1.14951	1.43095	5.34132	23
0.0303885	0.946434	1.15102	1.53006	5.29262	24
0.033104	0.941953	1.1526	1.62914	5.24218	25
0.035949	0.9373	1.15422	1.72781	5.19004	26
0.038925	0.932479	1.15588	1.82569	5.13623	27
0.0420334	0.927491	1.1576	1.92242	5.0808	28
0.0452756	0.922336	1.15935	2.01766	5.0238	29
0.0486527	0.917017	1.16114	2.11109	4.96528	30
0.0521659	0.911536	1.16297	2.20241	4.90528	31
0.0558161	0.905894	1.16482	2.29132	4.84385	32
0.059604	0.900092	1.16671	2.37757	4.78105	33
0.0635304	0.894134	1.16862	2.46093	4.71692	34
0.0675957	0.888021	1.17055	2.54118	4.65153	35
0.0718003	0.881754	1.17249	2.61814	4.58493	36
0.0761443	0.875335	1.17445	2.69165	4.51717	37
0.0806278	0.868768	1.17642	2.76158	4.44831	38
0.0852505	0.862054	1.1784	2.82782	4.37841	39
0.0900121	0.855194	1.18038	2.8903	4.30754	40
0.0949121	0.848192	1.18235	2.94897	4.23575	41
0.0999497	0.841049	1.18433	3.0038	4.1631	42
0.105124	0.833768	1.1863	3.05479	4.08965	43
0.110434	0.826351	1.18827	3.10195	4.01548	44
0.115879	0.818801	1.19022	3.14533	3.94063	45
0.121457	0.81112	1.19217	3.18499	3.86518	46
0.127167	0.80331	1.1941	3.22101	3.78919	47
0.133006	0.795374	1.19602	3.25348	3.71272	48
0.138975	0.787315	1.19793	3.28251	3.63583	49
0.14507	0.779135	1.19983	3.30822	3.55859	50
0.151289	0.770838	1.20172	3.33073	3.48107	51
0.157632	0.762424	1.2036	3.35019	3.40333	52
0.164095	0.753898	1.20547	3.36674	3.32542	53
0.170677	0.745263	1.20734	3.38052	3.24743	54
0.177376	0.73652	1.2092	3.39168	3.16939	55
0.184189	0.727673	1.21106	3.40036	3.09139	56
0.191114	0.718725	1.21292	3.40671	3.01347	57
0.19815	0.709679	1.21479	3.41086	2.93571	58
0.205293	0.700538	1.21668	3.41295	2.85815	59
0.212542	0.691305	1.21857	3.41312	2.78087	60
0.219895	0.681983	1.22049	3.41146	2.70391	61
0.22735	0.672575	1.22243	3.40811	2.62734	62
0.234905	0.663084	1.2244	3.40315	2.55121	63
0.242557	0.653513	1.2264	3.39669	2.47559	64
0.250305	0.643866	1.22845	3.3888	2.40051	65
0.258147	0.634146	1.23054	3.37955	2.32604	66
0.266081	0.624357	1.23268	3.36901	2.25223	67
0.274105	0.614501	1.23488	3.35723	2.17913	68
0.282219	0.604582	1.23715	3.34424	2.10679	69
0.290419	0.594604	1.23948	3.33008	2.03526	70
0.298704	0.584569	1.24189	3.31477	1.96458	71
0.307074	0.574482	1.24437	3.29832	1.89481	72
0.315526	0.564345	1.24695	3.28075	1.82598	73
0.324058	0.554163	1.24961	3.26204	1.75815	74
0.33267	0.543939	1.25237	3.2422	1.69134	75
0.34136	0.533677	1.25523	3.22121	1.62561	76
0.350126	0.523379	1.25819	3.19906	1.56098	77
0.358967	0.513051	1.26127	3.17572	1.4975	78
0.367882	0.502695	1.26445	3.15118	1.4352	79
0.376868	0.492316	1.26776	3.12542	1.37412	80
0.385924	0.481917	1.27118	3.0984	1.31428	81
0.39505	0.471502	1.27472	3.0701	1.25572	82
0.404242	0.461074	1.27839	3.04051	1.19846	83
0.413499	0.450638	1.28219	3.00959	1.14253	84
0.42282	0.440198	1.28611	2.97733	1.08795	85
0.432202	0.429757	1.29017	2.9437	1.03475	86
0.441643	0.419319	1.29435	2.9087	0.982939	87
0.451141	0.408889	1.29867	2.8723	0.932539	88
0.460693	0.39847	1.30311	2.8345	0.883566	89
0.470298	0.388067	1.30768	2.79529	0.836033	90
0.479952	0.377683	1.31239	2.75466	0.78995	91
0.489652	0.367323	1.31722	2.71262	0.745327	92
0.499396	0.356991	1.32217	2.66917	0.702169	93
0.50918	0.34669	1.32724	2.62432	0.660481	94
0.519001	0.336426	1.33244	2.57808	0.620265	95
0.528855	0.326202	1.33775	2.53046	0.581521	96
0.538737	0.316023	1.34317	2.48148	0.544246	97
0.548645	0.305893	1.3487	2.43117	0.508436	98
0.558573	0.295817	1.35434	2.37954	0.474083	99
0.568518	0.285799	1.36007	2.32662	0.441179	100
0.578473	0.275842	1.3659	2.27244	0.409712	101
0.588434	0.265953	1.37181	2.21705	0.379668	102
0.598396	0.256136	1.37781	2.16046	0.351032	103
0.608353	0.246394	1.38388	2.10273	0.323787	104
0.618298	0.236733	1.39001	2.04389	0.297912	105
0.628227	0.227158	1.39621	1.98399	0.273386	106
0.638131	0.217673	1.40247	1.92307	0.250187	107
0.648005	0.208284	1.40877	1.8612	0.228287	108
0.657842	0.198995	1.41511	1.79841	0.207661	109
0.667634	0.189811	1.42148	1.73477	0.18828	110
0.677373	0.180738	1.42787	1.67033	0.170114	111
0.687051	0.17178	1.43428	1.60517	0.15313	112
0.696661	0.162944	1.44069	1.53936	0.137296	113
0.706193	0.154235	1.4471	1.47295	0.122577	114
0.715639	0.145657	1.45349	1.40604	0.108938	115
0.72499	0.137219	1.45986	1.33871	0.0963415	116
0.734236	0.128924	1.4662	1.27104	0.0847499	117
0.743367	0.120779	1.4725	1.20314	0.0741244	118
0.752372	0.112792	1.47875	1.13511	0.0644254	119
0.761242	0.104968	1.48494	1.06704	0.0556123	120
0.769965	0.0973143	1.49105	0.999079	0.0476443	121
0.778528	0.0898384	1.49709	0.931336	0.0404795	122
0.782725	0.0825479	1.49987	0.85898	0.0341265	123
0.783236	0.075451	1.49993	0.78424	0.028508	124
0.783484	0.0685561	1.49982	0.711654	0.0235356	125
0.783962	0.0618726	1.49993	0.641777	0.0191683	126
0.784193	0.0554104	1.49988	0.57421	0.0153729	127
0.784415	0.0491802	1.49986	0.509254	0.0121099	128
0.784628	0.0431939	1.49986	0.446987	0.0093409	129
0.784832	0.0374645	1.49989	0.387509	0.00702696	130
0.785025	0.0320069	1.49992	0.330939	0.00512856	131
0.785208	0.0268379	1.49997	0.277422	0.00360565	132
0.785293	0.0219768	1.49997	0.227111	0.00241776	133
0.785373	0.0174471	1.49998	0.180266	0.00152377	134
0.785446	0.013277	1.5	0.137165	0.00088241	135
0.78548	0.00950296	1.5	0.0981656	0.000452048	136
0.785494	0.00617372	1.49999	0.0637702	0.000190791	137
0.785506	0.00336107	1.5	0.0347166	5.65484e-05	138
0.785511	0.00118843	1.5	0.0122752	7.06988e-06	139
0.785514	0	1.5	0	0	140
zone t="J = 1"
0.000100171	1	1.13216	0.00717419	5.93005	0
0.000250461	0.999717	1.13199	0.0110049	5.92672	1
0.00050091	0.999245	1.13171	0.0173625	5.92116	2
0.00085149	0.998583	1.13133	0.0262079	5.91337	3
0.00130217	0.997732	1.13083	0.0374873	5.90335	4
0.00185294	0.996689	1.13024	0.0511328	5.8911	5
0.00250375	0.995455	1.12954	0.0670627	5.8766	6
0.0032546	0.994028	1.12875	0.0851822	5.85985	7
0.00410546	0.992406	1.12786	0.105384	5.84084	8
0.0050563	0.990589	1.12689	0.12755	5.81957	9
0.00610712	0.988573	1.12584	0.151551	5.79602	10
0.00725791	0.986359	1.12471	0.177249	5.77018	11
0.00850864	0.983942	1.12351	0.204495	5.74204	12
0.00985933	0.981323	1.12225	0.233137	5.7116	13
0.01131	0.978497	1.12094	0.263012	5.67883	14
0.0128605	0.975463	1.11957	0.293956	5.64374	15
0.0145111	0.972218	1.11817	0.3258	5.60631	16
0.0162616	0.96876	1.11674	0.358372	5.56653	17
0.0181121	0.965085	1.11528	0.391499	5.52441	18
0.0200625	0.961193	1.11381	0.425009	5.47992	19
0.022113	0.957079	1.11234	0.458731	5.43308	20
0.0242635	0.952741	1.11086	0.492497	5.38388	21
0.0265139	0.948177	1.1094	0.526141	5.33233	22
0.0288644	0.943384	1.10796	0.559505	5.27844	23
0.0313149	0.93836	1.10655	0.592433	5.22221	24
0.0338654	0.933103	1.10517	0.624779	5.16368	25
0.0365158	0.927612	1.10384	0.656403	5.10285	26
0.0392662	0.921885	1.10256	0.687175	5.03976	27
0.0421165	0.91592	1.10134	0.716973	4.97444	28
0.0450666	0.909718	1.10019	0.745683	4.90694	29
0.0481165	0.903277	1.09911	0.773205	4.83731	30
0.051266	0.896599	1.09811	0.799447	4.7656	31
0.0545151	0.889682	1.0972	0.824327	4.69188	32
0.0578636	0.88253	1.09637	0.847777	4.61621	33
0.0613114	0.875143	1.09565	0.869737	4.53869	34
0.0648582	0.867523	1.09502	0.89016	4.45938	35
0.0685039	0.859674	1.09449	0.909009	4.3784	36
0.0722482	0.851598	1.09406	0.926258	4.29582	37
0.0760909	0.8433	1.09374	0.941891	4.21177	38
0.0800317	0.834783	1.09353	0.955902	4.12635	39
0.0840702	0.826053	1.09341	0.968294	4.03968	40
0.0882062	0.817114	1.09341	0.979078	3.95187	41
0.0924391	0.807972	1.09351	0.988276	3.86304	42
0.0967686	0.798632	1.09371	0.995912	3.77333	43
0.101194	0.789101	1.09401	1.00202	3.68285	44
0.105715	0.779385	1.0944	1.00664	3.59173	45
0.110331	0.76949	1.09489	1.00981	3.50009	46
0.115042	0.759423	1.09547	1.01157	3.40806	47
0.119846	0.74919	1.09614	1.01198	3.31577	48
0.124743	0.738798	1.09689	1.01107	3.22333	49
0.129732	0.728253	1.09772	1.00889	3.13086	50
0.134812	0.717562	1.09862	1.0055	3.03848	51
0.139983	0.706732	1.0996	1.00091	2.9463	52
0.145243	0.695769	1.10064	0.995179	2.85443	53
0.150592	0.684679	1.10175	0.988329	2.76298	54
0.156027	0.673468	1.10293	0.980385	2.67205	55
0.161549	0.662144	1.10416	0.971364	2.58174	56
0.167156	0.650712	1.10546	0.961274	2.49214	57
0.172847	0.639178	1.10681	0.950118	2.40335	58
0.178619	0.627548	1.10821	0.937885	2.31546	59
0.184473	0.615828	1.10967	0.924557	2.22854	60
0.190406	0.604024	1.11119	0.910107	2.14268	61
0.196418	0.592141	1.11276	0.894495	2.05797	62
0.202506	0.580186	1.11438	0.877672	1.97446	63
0.208669	0.568164	1.11606	0.859578	1.89224	64
0.214906	0.556081	1.11779	0.840143	1.81137	65
0.221215	0.543942	1.11958	0.819285	1.73192	66
0.227594	0.531753	1.12143	0.796912	1.65393	67
0.234041	0.519519	1.12333	0.772923	1.57748	68
0.240556	0.507245	1.1253	0.747205	1.50261	69
0.247135	0.494938	1.12733	0.719633	1.42938	70
0.253778	0.482602	1.12943	0.690074	1.35783	71
0.260482	0.470242	1.13159	0.658384	1.28799	72
0.267246	0.457865	1.13382	0.624408	1.21992	73
0.274067	0.445473	1.13612	0.587981	1.15364	74
0.280944	0.433074	1.1385	0.548925	1.0892	75
0.287875	0.420671	1.14095	0.507051	1.02661	76
0.294857	0.408269	1.14347	0.462157	0.965901	77
0.301889	0.395873	1.14608	0.414027	0.907097	78
0.308968	0.383488	1.14876	0.362428	0.850216	79
0.316092	0.371119	1.15152	0.307109	0.795271	80
0.323259	0.358769	1.15436	0.247798	0.742276	81
0.330465	0.346442	1.15728	0.184194	0.691238	82
0.337708	0.334145	1.16029	0.11597	0.642163	83
0.344986	0.321879	1.16338	0.0427581	0.595054	84
0.35233	0.309597	1.16641	0	0.549711	85
0.359721	0.297359	1.17001	0	0.506329	86
0.367098	0.285305	1.17488	0	0.46536	87
0.374503	0.273401	1.18046	0	0.426615	88
0.381955	0.261626	1.18648	0	0.389978	89
0.389463	0.249973	1.19279	0	0.355369	90
0.397032	0.238438	1.19932	0	0.322725	91
0.404661	0.22702	1.20604	0	0.291992	92
0.41235	0.215718	1.21291	0	0.263118	93
0.420096	0.204533	1.21993	0	0.236057	94
0.427897	0.193466	1.22709	0	0.21076	95
0.43575	0.182519	1.23439	0	0.187178	96
0.443653	0.171693	1.2418	0	0.165265	97
0.4516	0.16099	1.24934	0	0.144971	98
0.45959	0.150411	1.257	0	0.126249	99
0.467618	0.139958	1.26476	0	0.10905	100
0.475679	0.129633	1.27262	0	0.0933243	101
0.483769	0.119437	1.28058	0	0.0790237	102
0.491884	0.109373	1.28863	0	0.0660986	103
0.500018	0.0994432	1.29676	0	0.0544991	104
0.508166	0.0896495	1.30496	0	0.0441756	105
0.516323	0.0799944	1.31323	0	0.0350778	106
0.524482	0.0704805	1.32156	0	0.0271555	107
0.532637	0.0611103	1.32994	0	0.0203582	108
0.540783	0.0518868	1.33836	0	0.0146351	109
0.548911	0.0428129	1.34681	0	0.00993548	110
0.557016	0.0338917	1.35529	0	0.00620827	111
0.565089	0.0251264	1.36377	0	0.0034024	112
0.573122	0.0165205	1.37227	0	0.00146671	113
0.581096	0.00809278	1.38102	0	0.000351354	114
0.588804	0	1.38102	0	0	115
zone t="J = 2"
0.0004008	1	1.13276	0.0287052	5.93106	0
0.000651627	0.999529	1.13249	0.035066	5.92551	1
0.00100274	0.998869	1.1321	0.0439159	5.91774	2
0.00145411	0.99802	1.13161	0.0552012	5.90774	3
0.00200571	0.99698	1.13102	0.0688538	5.89551	4
0.00265753	0.995748	1.13032	0.0847921	5.88105	5
0.00340954	0.994324	1.12953	0.102921	5.86433	6
0.00426173	0.992707	1.12865	0.123134	5.84536	7
0.00521408	0.990893	1.12768	0.145313	5.82414	8
0.00626658	0.988883	1.12663	0.169327	5.80063	9
0.00741923	0.986674	1.1255	0.19504	5.77485	10
0.00867202	0.984264	1.12431	0.222302	5.74677	11
0.010025	0.981651	1.12305	0.250961	5.7164	12
0.011478	0.978832	1.12174	0.280855	5.6837	13
0.0130313	0.975806	1.12039	0.311819	5.64869	14
0.0146847	0.972569	1.11899	0.343684	5.61134	15
0.0164383	0.96912	1.11757	0.376278	5.57166	16
0.0182922	0.965456	1.11612	0.409429	5.52963	17
0.0202462	0.961574	1.11465	0.442964	5.48525	18
0.0223006	0.957471	1.11318	0.476712	5.43851	19
0.0244552	0.953145	1.11171	0.510504	5.38943	20
0.0267101	0.948594	1.11026	0.544177	5.338	21
0.0290653	0.943815	1.10882	0.57757	5.28424	22
0.0315208	0.938806	1.10742	0.610529	5.22815	23
0.0340767	0.933565	1.10605	0.642907	5.16975	24
0.0367328	0.92809	1.10472	0.674564	5.10907	25
0.0394893	0.92238	1.10345	0.70537	5.04614	26
0.042346	0.916434	1.10224	0.735202	4.98099	27
0.045303	0.91025	1.1011	0.763949	4.91366	28
0.0483601	0.90383	1.10003	0.791508	4.8442	29
0.0515172	0.897172	1.09903	0.817788	4.77267	30
0.0547743	0.890278	1.09813	0.842708	4.69913	31
0.0581313	0.883149	1.09731	0.866198	4.62365	32
0.061588	0.875785	1.09659	0.8882	4.54632	33
0.0651441	0.86819	1.09597	0.908667	4.46721	34
0.0687997	0.860367	1.09545	0.92756	4.38642	35
0.0725543	0.852317	1.09503	0.944855	4.30405	36
0.0764077	0.844046	1.09471	0.960536	4.2202	37
0.0803597	0.835557	1.0945	0.974596	4.13497	38
0.0844099	0.826856	1.0944	0.987039	4.0485	39
0.0885579	0.817946	1.0944	0.997877	3.96088	40
0.0928034	0.808833	1.0945	1.00713	3.87225	41
0.097146	0.799524	1.09471	1.01482	3.78272	42
0.101585	0.790023	1.09501	1.02099	3.69242	43
0.10612	0.780338	1.09541	1.02567	3.60148	44
0.11075	0.770474	1.0959	1.0289	3.51001	45
0.115476	0.760438	1.09649	1.03074	3.41815	46
0.120295	0.750237	1.09716	1.03121	3.32601	47
0.125207	0.739876	1.09791	1.03038	3.23372	48
0.130212	0.729363	1.09874	1.02828	3.14139	49
0.135309	0.718704	1.09965	1.02496	3.04913	50
0.140496	0.707906	1.10063	1.02046	2.95707	51
0.145773	0.696974	1.10168	1.01482	2.86531	52
0.151139	0.685916	1.10279	1.00806	2.77395	53
0.156593	0.674737	1.10397	1.00021	2.68311	54
0.162132	0.663444	1.10521	0.991295	2.59287	55
0.167757	0.652042	1.1065	0.981312	2.50333	56
0.173466	0.640539	1.10786	0.970268	2.41459	57
0.179258	0.62894	1.10927	0.958152	2.32673	58
0.185131	0.61725	1.11073	0.944949	2.23984	59
0.191083	0.605476	1.11225	0.930628	2.154	60
0.197114	0.593623	1.11382	0.915153	2.06929	61
0.203222	0.581697	1.11544	0.898475	1.98577	62
0.209405	0.569704	1.11712	0.880533	1.90353	63
0.215662	0.557649	1.11886	0.861259	1.82262	64
0.221992	0.545538	1.12065	0.840572	1.74312	65
0.228391	0.533377	1.1225	0.818381	1.66508	66
0.23486	0.52117	1.12441	0.794585	1.58856	67
0.241395	0.508923	1.12638	0.769071	1.51361	68
0.247996	0.496642	1.12842	0.741718	1.44028	69
0.254661	0.484331	1.13052	0.712393	1.36862	70
0.261387	0.471996	1.13268	0.680954	1.29867	71
0.268173	0.459643	1.13492	0.647248	1.23048	72
0.275017	0.447275	1.13722	0.611111	1.16407	73
0.281916	0.434899	1.1396	0.572368	1.09947	74
0.28887	0.422518	1.14205	0.530834	1.03673	75
0.295876	0.410138	1.14458	0.486308	0.975854	76
0.302931	0.397764	1.14719	0.438579	0.916876	77
0.310034	0.385399	1.14988	0.387417	0.859811	78
0.317182	0.373049	1.15264	0.332577	0.804675	79
0.324373	0.360718	1.15549	0.27379	0.751479	80
0.331604	0.34841	1.15842	0.210766	0.700234	81
0.338872	0.336129	1.16143	0.143182	0.650945	82
0.346176	0.323881	1.16452	0.0706791	0.603615	83
0.353539	0.31161	1.16692	0.0125249	0.558023	84
0.360932	0.299356	1.16872	0	0.514293	85
0.368291	0.287249	1.17181	0	0.472839	86
0.375663	0.275262	1.17615	0	0.433521	87
0.383072	0.263389	1.18134	0	0.396278	88
0.390531	0.251629	1.18709	0	0.361062	89
0.398047	0.239984	1.19324	0	0.327831	90
0.40562	0.228454	1.19967	0	0.296541	91
0.413251	0.217042	1.20633	0	0.267146	92
0.420939	0.20575	1.21316	0	0.239599	93
0.428681	0.194578	1.22016	0	0.213852	94
0.436474	0.183528	1.22731	0	0.189858	95
0.444316	0.172602	1.23459	0	0.167566	96
0.452204	0.161802	1.242	0	0.146929	97
0.460132	0.151129	1.24953	0	0.127895	98
0.468099	0.140585	1.25718	0	0.110415	99
0.476099	0.130171	1.26493	0	0.0944394	100
0.484129	0.11989	1.27279	0	0.0799168	101
0.492183	0.109744	1.28074	0	0.0667966	102
0.500256	0.0997339	1.28878	0	0.0550279	103
0.508344	0.0898632	1.2969	0	0.0445595	104
0.51644	0.0801338	1.30509	0	0.0353401	105
0.52454	0.0705483	1.31335	0	0.0273179	106
0.532637	0.0611094	1.32167	0	0.0204413	107
0.540724	0.0518197	1.33004	0	0.0146583	108
0.548794	0.0426823	1.33845	0	0.00991685	109
0.556842	0.0337001	1.34689	0	0.00616471	110
0.564859	0.0248764	1.35535	0	0.0033496	111
0.572837	0.0162147	1.36383	0	0.00141916	112
0.580756	0.00773337	1.37244	0	0.000322267	113
0.588025	0	1.37244	0	0	114
zone t="J = 3"
0.000902314	1	1.13378	0.0646235	5.93182	0
0.0012543	0.999343	1.13339	0.0734809	5.92408	1
0.00170681	0.998497	1.1329	0.0847758	5.91412	2
0.00225981	0.997461	1.13231	0.0984402	5.90193	3
0.00291329	0.996234	1.13162	0.114392	5.88751	4
0.00366723	0.994816	1.13083	0.132538	5.87085	5
0.00452163	0.993205	1.12996	0.152769	5.85195	6
0.00547647	0.991399	1.12899	0.174968	5.8308	7
0.00653176	0.989397	1.12795	0.199005	5.80738	8
0.00768749	0.987197	1.12683	0.224741	5.78169	9
0.00894368	0.984796	1.12564	0.252031	5.75371	10
0.0103003	0.982194	1.12439	0.280718	5.72344	11
0.0117575	0.979387	1.12309	0.310643	5.69087	12
0.0133151	0.976374	1.12174	0.34164	5.65598	13
0.0149733	0.973152	1.12036	0.373539	5.61877	14
0.0167321	0.969718	1.11894	0.40617	5.57924	15
0.0185915	0.966069	1.1175	0.43936	5.53736	16
0.0205515	0.962204	1.11604	0.472936	5.49315	17
0.0226123	0.95812	1.11459	0.506726	5.4466	18
0.0247737	0.953814	1.11313	0.540564	5.39771	19
0.0270359	0.949284	1.11169	0.574283	5.34648	20
0.029399	0.944528	1.11026	0.607724	5.29293	21
0.0318629	0.939543	1.10887	0.640734	5.23706	22
0.0344276	0.934327	1.10751	0.673164	5.1789	23
0.0370932	0.928879	1.1062	0.704875	5.11847	24
0.0398597	0.923197	1.10494	0.735737	5.05579	25
0.042727	0.917281	1.10374	0.765627	4.9909	26
0.0456952	0.911129	1.10261	0.794433	4.92385	27
0.0487642	0.904742	1.10155	0.822054	4.85467	28
0.051934	0.898119	1.10057	0.848397	4.78344	29
0.0552044	0.891261	1.09968	0.873382	4.7102	30
0.0585753	0.884169	1.09887	0.896939	4.63503	31
0.0620466	0.876844	1.09816	0.919011	4.55801	32
0.0656183	0.86929	1.09755	0.939549	4.47922	33
0.0692899	0.861508	1.09704	0.958516	4.39875	34
0.0730615	0.853502	1.09663	0.975887	4.31671	35
0.0769326	0.845275	1.09633	0.991647	4.23318	36
0.080903	0.836832	1.09613	1.00579	4.14828	37
0.0849724	0.828177	1.09603	1.01832	4.06213	38
0.0891404	0.819314	1.09604	1.02924	3.97483	39
0.0934066	0.81025	1.09615	1.03858	3.88651	40
0.0977706	0.80099	1.09637	1.04637	3.79729	41
0.102232	0.791539	1.09668	1.05264	3.70729	42
0.10679	0.781904	1.09709	1.05742	3.61664	43
0.111444	0.772092	1.09759	1.06076	3.52545	44
0.116193	0.762107	1.09818	1.0627	3.43386	45
0.121037	0.751957	1.09885	1.0633	3.34197	46
0.125975	0.741648	1.09961	1.06258	3.24992	47
0.131006	0.731187	1.10045	1.06061	3.15781	48
0.13613	0.72058	1.10136	1.05743	3.06577	49
0.141345	0.709833	1.10234	1.05307	2.9739	50
0.14665	0.698954	1.1034	1.04757	2.88231	51
0.152044	0.687947	1.10452	1.04096	2.79111	52
0.157526	0.676819	1.1057	1.03327	2.7004	53
0.163095	0.665577	1.10694	1.02452	2.61028	54
0.16875	0.654227	1.10824	1.01471	2.52085	55
0.174489	0.642774	1.1096	1.00385	2.43219	56
0.180312	0.631225	1.11101	0.99193	2.34439	57
0.186216	0.619585	1.11248	0.978929	2.25755	58
0.1922	0.60786	1.114	0.964822	2.17173	59
0.198263	0.596055	1.11558	0.949571	2.08702	60
0.204404	0.584178	1.11721	0.933128	2.00349	61
0.21062	0.572232	1.1189	0.915436	1.92121	62
0.21691	0.560224	1.12064	0.896426	1.84025	63
0.223273	0.548159	1.12243	0.876017	1.76068	64
0.229707	0.536043	1.12429	0.854122	1.68254	65
0.23621	0.52388	1.1262	0.830639	1.60591	66
0.242781	0.511677	1.12818	0.80546	1.53083	67
0.249417	0.499439	1.13022	0.778463	1.45735	68
0.256117	0.48717	1.13233	0.749519	1.38553	69
0.262879	0.474876	1.1345	0.718487	1.31539	70
0.269702	0.462563	1.13674	0.685219	1.24699	71
0.276583	0.450234	1.13905	0.649552	1.18036	72
0.28352	0.437896	1.14144	0.611318	1.11553	73
0.290512	0.425552	1.1439	0.570332	1.05253	74
0.297556	0.413208	1.14643	0.526403	0.99139	75
0.30465	0.400869	1.14904	0.479321	0.932128	76
0.311792	0.388538	1.15174	0.428866	0.874765	77
0.31898	0.37622	1.15451	0.374798	0.819316	78
0.326211	0.36392	1.15736	0.316859	0.765796	79
0.333483	0.351643	1.1603	0.254767	0.714213	80
0.340793	0.339392	1.16331	0.188212	0.664574	81
0.348138	0.327171	1.16641	0.11685	0.616883	82
0.35554	0.314932	1.16883	0.0598603	0.570938	83
0.362963	0.30271	1.17001	0.0320405	0.526845	84
0.37034	0.290603	1.17156	0	0.484916	85
0.377707	0.278576	1.17386	0	0.444983	86
0.385096	0.266626	1.17761	0	0.407011	87
0.392525	0.254767	1.18238	0	0.371017	88
0.400002	0.24301	1.18783	0	0.336997	89
0.407532	0.231363	1.19378	0	0.304933	90
0.415117	0.219831	1.20009	0	0.274792	91
0.422756	0.208418	1.20666	0	0.246536	92
0.430448	0.197128	1.21344	0	0.220121	93
0.438191	0.185962	1.22041	0	0.195498	94
0.445982	0.174922	1.22753	0	0.17262	95
0.453817	0.164012	1.2348	0	0.151435	96
0.461694	0.153231	1.2422	0	0.131894	97
0.469608	0.142582	1.24972	0	0.113944	98
0.477556	0.132067	1.25736	0	0.0975334	99
0.485533	0.121688	1.2651	0	0.0826111	100
0.493534	0.111446	1.27295	0	0.0691244	101
0.501555	0.101344	1.28089	0	0.0570209	102
0.509591	0.0913848	1.28892	0	0.0462479	103
0.517635	0.0815695	1.29704	0	0.0367527	104
0.525683	0.0719011	1.30522	0	0.0284821	105
0.533728	0.0623822	1.31347	0	0.021383	106
0.541765	0.0530155	1.32178	0	0.0154021	107
0.549785	0.0438039	1.33014	0	0.010486	108
0.557783	0.0347505	1.33854	0	0.0065811	109
0.565751	0.0258584	1.34697	0	0.00363377	110
0.573681	0.0171311	1.35542	0	0.00159037	111
0.581552	0.00858669	1.36395	0	0.000398598	112
0.588787	0.000813256	1.3682	0	3.57169e-06	113
0.589546	0	1.3682	0	0	114
zone t="J = 4"
0.00160546	1	1.1352	0.114983	5.93237	0
0.00205955	0.99916	1.13471	0.126291	5.92245	1
0.00261449	0.99813	1.13412	0.139972	5.91032	2
0.00327027	0.99691	1.13344	0.155943	5.89597	3
0.0040269	0.995499	1.13266	0.174111	5.87939	4
0.00488436	0.993897	1.13178	0.194367	5.86058	5
0.00584266	0.992101	1.13083	0.216594	5.83953	6
0.00690181	0.99011	1.12979	0.240661	5.81623	7
0.00806183	0.987922	1.12868	0.266432	5.79066	8
0.00932273	0.985536	1.1275	0.293758	5.76282	9
0.0106846	0.982948	1.12627	0.322485	5.7327	10
0.0121473	0.980158	1.12497	0.352452	5.70029	11
0.0137111	0.977162	1.12364	0.383494	5.66558	12
0.0153759	0.973959	1.12226	0.415442	5.62857	13
0.0171418	0.970546	1.12086	0.448124	5.58923	14
0.0190089	0.96692	1.11943	0.481367	5.54758	15
0.0209772	0.963079	1.11799	0.514999	5.5036	16
0.0230468	0.95902	1.11655	0.548849	5.45729	17
0.0252178	0.954741	1.1151	0.582748	5.40866	18
0.0274901	0.95024	1.11368	0.616531	5.35771	19
0.029864	0.945515	1.11227	0.650039	5.30445	20
0.0323394	0.940562	1.11089	0.683118	5.24889	21
0.0349164	0.935381	1.10955	0.71562	5.19105	22
0.037595	0.92997	1.10825	0.747406	5.13095	23
0.0403754	0.924328	1.10701	0.778345	5.06862	24
0.0432574	0.918452	1.10583	0.808314	5.00409	25
0.0462411	0.912343	1.10471	0.837203	4.93741	26
0.0493266	0.906001	1.10367	0.864908	4.86863	27
0.0525136	0.899425	1.10271	0.891338	4.79779	28
0.0558023	0.892616	1.10183	0.916413	4.72497	29
0.0591925	0.885575	1.10105	0.940063	4.65022	30
0.0626841	0.878304	1.10035	0.96223	4.57363	31
0.0662769	0.870805	1.09976	0.982867	4.49527	32
0.0699709	0.86308	1.09926	1.00194	4.41524	33
0.0737657	0.855132	1.09887	1.01941	4.33364	34
0.0776611	0.846966	1.09858	1.03528	4.25055	35
0.0816569	0.838584	1.09839	1.04953	4.1661	36
0.0857527	0.829992	1.09831	1.06218	4.08038	37
0.0899482	0.821195	1.09833	1.07322	3.99352	38
0.0942428	0.812197	1.09845	1.08269	3.90563	39
0.0986363	0.803003	1.09868	1.09061	3.81683	40
0.103128	0.79362	1.099	1.09701	3.72723	41
0.107717	0.784054	1.09942	1.10193	3.63697	42
0.112404	0.774311	1.09992	1.10542	3.54617	43
0.117186	0.764396	1.10052	1.10752	3.45493	44
0.122065	0.754316	1.10121	1.10827	3.36339	45
0.127038	0.744078	1.10197	1.10772	3.27167	46
0.132105	0.733687	1.10282	1.10593	3.17987	47
0.137265	0.723151	1.10374	1.10292	3.08811	48
0.142517	0.712475	1.10473	1.09875	2.9965	49
0.147861	0.701666	1.10579	1.09345	2.90516	50
0.153294	0.69073	1.10692	1.08706	2.81418	51
0.158816	0.679672	1.10811	1.07959	2.72366	52
0.164426	0.6685	1.10935	1.07106	2.63371	53
0.170122	0.657219	1.11066	1.06149	2.54441	54
0.175903	0.645835	1.11203	1.05088	2.45587	55
0.181768	0.634355	1.11345	1.03922	2.36817	56
0.187715	0.622782	1.11492	1.0265	2.28138	57
0.193743	0.611125	1.11645	1.01268	2.1956	58
0.19985	0.599387	1.11803	0.997736	2.1109	59
0.206035	0.587575	1.11967	0.981615	2.02736	60
0.212297	0.575694	1.12136	0.964262	1.94504	61
0.218633	0.56375	1.12311	0.945609	1.86401	62
0.225042	0.551748	1.12492	0.92558	1.78433	63
0.231523	0.539694	1.12678	0.904085	1.70608	64
0.238073	0.527593	1.1287	0.881027	1.6293	65
0.244692	0.51545	1.13069	0.8563	1.55404	66
0.251377	0.503271	1.13273	0.829784	1.48037	67
0.258126	0.49106	1.13485	0.801354	1.40832	68
0.264938	0.478822	1.13703	0.770873	1.33794	69
0.271811	0.466564	1.13928	0.738194	1.26926	70
0.278743	0.454289	1.1416	0.703161	1.20234	71
0.285732	0.442003	1.14399	0.66561	1.13719	72
0.292776	0.429711	1.14646	0.625362	1.07385	73
0.299873	0.417417	1.149	0.582231	1.01234	74
0.307021	0.405125	1.15163	0.536018	0.952698	75
0.314217	0.392841	1.15433	0.486507	0.894932	76
0.321459	0.380568	1.15711	0.433472	0.839062	77
0.328746	0.368312	1.15997	0.376663	0.785101	78
0.336074	0.356077	1.16292	0.315813	0.73306	79
0.34344	0.343866	1.16594	0.250628	0.682948	80
0.350843	0.331684	1.16905	0.18078	0.634768	81
0.3583	0.31949	1.17149	0.12533	0.588345	82
0.365771	0.307324	1.17271	0.0989501	0.543803	83
0.373196	0.29527	1.17417	0.0653054	0.501402	84
0.380603	0.283278	1.17535	0.0374139	0.460934	85
0.388015	0.271321	1.17723	0	0.422282	86
0.395443	0.25941	1.17981	0	0.385467	87
0.402904	0.247564	1.18384	0	0.350523	88
0.410408	0.235806	1.18883	0	0.317496	89
0.417961	0.224151	1.19449	0	0.286395	90
0.425565	0.212611	1.2006	0	0.257203	91
0.433218	0.201191	1.20706	0	0.229887	92
0.440921	0.189896	1.21377	0	0.204406	93
0.44867	0.17873	1.22068	0	0.180714	94
0.456463	0.167694	1.22777	0	0.158762	95
0.464297	0.156792	1.23502	0	0.138498	96
0.472168	0.146024	1.2424	0	0.119869	97
0.480072	0.135394	1.24991	0	0.102823	98
0.488004	0.124903	1.25754	0	0.0873069	99
0.495962	0.114553	1.26527	0	0.0732659	100
0.503939	0.104346	1.27311	0	0.0606464	101
0.511931	0.0942845	1.28105	0	0.049394	102
0.519931	0.0843707	1.28907	0	0.0394543	103
0.527936	0.074607	1.29717	0	0.0307728	104
0.535938	0.0649961	1.30535	0	0.0232948	105
0.543931	0.0555407	1.31359	0	0.0169652	106
0.551909	0.0462435	1.32189	0	0.0117294	107
0.559865	0.0371077	1.33024	0	0.00753211	108
0.567792	0.0281363	1.33862	0	0.00431839	109
0.575682	0.0193327	1.34704	0	0.0020331	110
0.583513	0.0107151	1.35552	0	0.000622873	111
0.590714	0.00288689	1.36187	0	4.50969e-05	112
0.591473	0.00206798	1.36504	0	2.31317e-05	113
0.593394	0	1.36504	0	0	114
zone t="J = 5"
0.00251132	1	1.13703	0.17986	5.93272	0
0.00306873	0.998981	1.13645	0.193562	5.92067	1
0.00372745	0.997769	1.13577	0.209557	5.9064	2
0.00448749	0.996369	1.13499	0.227753	5.88993	3
0.00534885	0.994777	1.13413	0.248041	5.87123	4
0.00631155	0.992994	1.13318	0.270303	5.85031	5
0.00737562	0.991017	1.13216	0.29441	5.82714	6
0.00854109	0.988845	1.13106	0.320223	5.80174	7
0.00980799	0.986476	1.12989	0.347595	5.77407	8
0.0111764	0.983907	1.12867	0.376372	5.74414	9
0.0126463	0.981137	1.12739	0.406393	5.71194	10
0.0142178	0.978164	1.12607	0.437492	5.67745	11
0.0158911	0.974984	1.12471	0.4695	5.64067	12
0.0176661	0.971597	1.12332	0.502246	5.60159	13
0.0195429	0.967999	1.12191	0.535557	5.56021	14
0.0215217	0.964188	1.12048	0.56926	5.51652	15
0.0236025	0.960161	1.11906	0.603184	5.47052	16
0.0257855	0.955917	1.11763	0.637161	5.42222	17
0.0280707	0.951452	1.11623	0.671025	5.37161	18
0.0304582	0.946765	1.11484	0.704617	5.31871	19
0.0329482	0.941854	1.11348	0.737784	5.26353	20
0.0355408	0.936716	1.11216	0.770376	5.20609	21
0.0382359	0.931351	1.11088	0.802256	5.14641	22
0.0410337	0.925756	1.10966	0.833292	5.08451	23
0.0439343	0.919932	1.1085	0.863362	5.02044	24
0.0469376	0.913876	1.10741	0.892354	4.95423	25
0.0500438	0.90759	1.10639	0.920165	4.88593	26
0.0532527	0.901072	1.10545	0.946705	4.81559	27
0.0565645	0.894325	1.10459	0.971894	4.74327	28
0.0599789	0.887347	1.10382	0.995661	4.66905	29
0.063496	0.880142	1.10315	1.01795	4.59299	30
0.0671156	0.872711	1.10257	1.03871	4.51517	31
0.0708375	0.865057	1.1021	1.05791	4.43568	32
0.0746616	0.857182	1.10172	1.07551	4.35463	33
0.0785876	0.849091	1.10145	1.09152	4.27209	34
0.0826153	0.840786	1.10128	1.10591	4.18818	35
0.0867443	0.832273	1.10121	1.1187	4.10301	36
0.0909742	0.823555	1.10125	1.1299	4.01669	37
0.0953046	0.814638	1.10139	1.13953	3.92932	38
0.099735	0.805528	1.10162	1.14761	3.84104	39
0.104265	0.796229	1.10196	1.15418	3.75195	40
0.108894	0.786748	1.10239	1.15928	3.66218	41
0.113621	0.77709	1.10291	1.16295	3.57185	42
0.118445	0.767262	1.10352	1.16524	3.48107	43
0.123367	0.757269	1.10421	1.16619	3.38996	44
0.128384	0.747119	1.10499	1.16586	3.29864	45
0.133496	0.736816	1.10584	1.16428	3.20722	46
0.138702	0.726367	1.10677	1.1615	3.11582	47
0.144002	0.715779	1.10777	1.15757	3.02454	48
0.149393	0.705058	1.10884	1.15252	2.9335	49
0.154875	0.694209	1.10998	1.14639	2.84279	50
0.160447	0.683239	1.11117	1.13919	2.75252	51
0.166108	0.672154	1.11243	1.13095	2.66278	52
0.171855	0.66096	1.11375	1.12168	2.57367	53
0.177689	0.649662	1.11512	1.11138	2.48527	54
0.183607	0.638267	1.11655	1.10005	2.39768	55
0.189608	0.626779	1.11803	1.08767	2.31099	56
0.195691	0.615205	1.11957	1.07421	2.22526	57
0.201853	0.603551	1.12116	1.05965	2.14058	58
0.208095	0.591821	1.12281	1.04392	2.05702	59
0.214413	0.580022	1.12451	1.02699	1.97465	60