VARIABLES = "X/R","R/R","Mach","Pres","Temp","Rho","Theta", "Gamma"
TITLE = "Primary MOC Contour Data file"
text  x=5  y=92  t="MOC Grid Development Contours"
zone t="Wall contour"
0	1	1.13196	136.959	3914.19	0.0021945	0	1.27
0.000100171	1	1.13216	136.925	3913.98	0.00219408	0.00717419	1.27
0.0004008	1	1.13276	136.824	3913.36	0.00219279	0.0287052	1.27
0.000902314	1	1.13378	136.654	3912.33	0.00219065	0.0646235	1.27
0.00160546	1	1.1352	136.416	3910.88	0.00218765	0.114983	1.27
0.00251132	1	1.13703	136.109	3909.01	0.00218377	0.17986	1.27
0.0036213	1.00001	1.13929	135.732	3906.7	0.002179	0.259357	1.27
0.00493714	1.00002	1.14197	135.284	3903.96	0.00217334	0.353599	1.27
0.00646094	1.00003	1.14509	134.764	3900.76	0.00216676	0.462736	1.27
0.00819515	1.00004	1.14865	134.171	3897.11	0.00215925	0.586945	1.27
0.0101426	1.00006	1.15268	133.503	3892.98	0.00215078	0.726428	1.27
0.0123064	1.00009	1.15717	132.76	3888.36	0.00214135	0.881417	1.27
0.0146902	1.00013	1.16214	131.939	3883.24	0.00213092	1.05217	1.27
0.017298	1.00019	1.16762	131.04	3877.59	0.00211947	1.23897	1.27
0.0201341	1.00025	1.1736	130.06	3871.41	0.00210698	1.44215	1.27
0.0232032	1.00034	1.18011	128.998	3864.67	0.00209342	1.66204	1.27
0.0265106	1.00044	1.18717	127.852	3857.35	0.00207877	1.89903	1.27
0.0300619	1.00057	1.19478	126.622	3849.42	0.002063	2.15353	1.27
0.0338631	1.00072	1.20298	125.305	3840.88	0.00204609	2.42599	1.27
0.0379208	1.0009	1.21179	123.9	3831.68	0.002028	2.71689	1.27
0.0422418	1.00112	1.22121	122.405	3821.81	0.00200871	3.02676	1.27
0.0468337	1.00137	1.23128	120.82	3811.23	0.00198821	3.35613	1.27
0.0517041	1.00167	1.24201	119.144	3799.93	0.00196645	3.70562	1.27
0.0568615	1.00202	1.25343	117.375	3787.86	0.00194343	4.07584	1.27
0.0623147	1.00243	1.26557	115.513	3775.01	0.00191911	4.46749	1.27
0.0680728	1.0029	1.27845	113.557	3761.33	0.00189348	4.88126	1.27
0.0741456	1.00344	1.2921	111.507	3746.79	0.00186651	5.31792	1.27
0.0805432	1.00406	1.30655	109.362	3731.35	0.00183819	5.77827	1.27
0.0872764	1.00477	1.32183	107.124	3714.98	0.00180849	6.26318	1.27
0.0943562	1.00558	1.33798	104.792	3697.64	0.00177742	6.77353	1.27
0.101794	1.0065	1.35502	102.367	3679.28	0.00174495	7.31029	1.27
0.109603	1.00754	1.373	99.8496	3659.85	0.00171108	7.87448	1.27
0.117794	1.00872	1.39196	97.2421	3639.32	0.00167579	8.46716	1.27
0.126381	1.01005	1.41194	94.5459	3617.63	0.0016391	9.08946	1.27
0.135378	1.01154	1.433	91.7634	3594.73	0.001601	9.74261	1.27
0.144798	1.01321	1.45517	88.8971	3570.56	0.00156149	10.4279	1.27
0.154657	1.01509	1.47853	85.9502	3545.06	0.00152058	11.1467	1.27
0.164969	1.01719	1.50312	82.9262	3518.17	0.0014783	11.9004	1.27
0.17575	1.01954	1.52902	79.8293	3489.82	0.00143465	12.6907	1.27
0.187016	1.02217	1.5563	76.6642	3459.93	0.00138967	13.5192	1.27
0.198786	1.02509	1.58505	73.4361	3428.43	0.00134339	14.3877	1.27
0.211076	1.02835	1.61536	70.1507	3395.23	0.00129584	15.2984	1.27
0.223906	1.03197	1.64733	66.8145	3360.24	0.00124706	16.2532	1.27
0.2306	1.03396	1.66416	65.1104	3341.84	0.00122195	16.7532	1.27
0.236408	1.03573	1.67883	63.6552	3325.81	0.00120039	17.1881	1.27
0.258405	1.04255	1.68779	62.7789	3316.03	0.00118736	17.2734	1.27
0.280672	1.04949	1.69678	61.9108	3306.23	0.00117441	17.3493	1.27
0.326039	1.06372	1.71481	60.1984	3286.57	0.00114876	17.4746	1.27
0.372373	1.07835	1.7328	58.53	3266.99	0.00112362	17.5687	1.27
0.419596	1.09334	1.75066	56.9123	3247.58	0.00109909	17.6359	1.27
0.467638	1.10863	1.76834	55.3484	3228.4	0.00107524	17.6793	1.27
0.516447	1.1242	1.78582	53.8382	3209.47	0.00105207	17.7012	1.27
0.565962	1.14001	1.80308	52.3823	3190.82	0.0010296	17.7036	1.27
0.616138	1.15602	1.82012	50.9788	3172.45	0.00100782	17.6881	1.27
0.66694	1.17221	1.83693	49.6254	3154.35	0.000986692	17.6558	1.27
0.718326	1.18854	1.85353	48.3205	3136.53	0.000966203	17.6079	1.27
0.770266	1.205	1.86992	47.0615	3118.97	0.000946326	17.5452	1.27
0.822735	1.22155	1.88611	45.8462	3101.67	0.00092703	17.4687	1.27
0.875708	1.23818	1.90212	44.6725	3084.62	0.000908292	17.3791	1.27
0.929167	1.25486	1.91794	43.5385	3067.8	0.000890087	17.2772	1.27
0.983095	1.27157	1.93358	42.4424	3051.22	0.000872395	17.1638	1.27
1.03747	1.2883	1.94906	41.3826	3034.86	0.000855196	17.0396	1.27
1.0923	1.30504	1.96437	40.3576	3018.72	0.000838474	16.9055	1.27
1.14755	1.32176	1.97952	39.3659	3002.8	0.000822206	16.7619	1.27
1.20322	1.33845	1.99437	38.4148	2987.22	0.000806525	16.6141	1.27
1.25928	1.3551	2.00827	37.544	2972.7	0.000792094	16.4842	1.27
1.3157	1.37173	2.0219	36.7075	2958.49	0.000778164	16.3506	1.27
1.37247	1.38831	2.03547	35.892	2944.39	0.00076452	16.2076	1.27
1.4296	1.40483	2.04897	35.0971	2930.41	0.000751156	16.0557	1.27
1.48707	1.42128	2.06244	34.3196	2916.48	0.000738023	15.8941	1.27
1.5449	1.43766	2.07575	33.5676	2902.78	0.000725259	15.728	1.27
1.60307	1.45394	2.08896	32.8356	2889.2	0.000712776	15.5553	1.27
1.66159	1.47013	2.10215	32.12	2875.7	0.000700516	15.3747	1.27
1.72045	1.48622	2.11512	31.4302	2862.46	0.000688644	15.1925	1.27
1.77966	1.50219	2.12813	30.7527	2849.23	0.000676929	15.0014	1.27
1.83922	1.51805	2.14091	30.0999	2836.26	0.000665588	14.8096	1.27
1.89913	1.53378	2.15368	29.4607	2823.35	0.000654432	14.6111	1.27
1.95939	1.54937	2.16633	28.8401	2810.6	0.000643553	14.4094	1.27
2.01999	1.56483	2.17885	28.238	2798.02	0.000632951	14.2055	1.27
2.08095	1.58014	2.19141	27.646	2785.44	0.000622478	13.9941	1.27
2.14226	1.5953	2.20369	27.0781	2773.18	0.000612388	13.7854	1.27
2.20392	1.6103	2.21606	26.5172	2760.87	0.000602378	13.5684	1.27
2.26594	1.62515	2.22832	25.9724	2748.71	0.000592612	13.3496	1.27
2.32833	1.63982	2.24115	25.4139	2736.04	0.000582554	13.1086	1.27
2.39111	1.6543	2.25347	24.8882	2723.9	0.000573045	12.8782	1.27
2.45426	1.66861	2.26528	24.3936	2712.31	0.000564059	12.6586	1.27
2.51776	1.68275	2.27684	23.9189	2701	0.000555399	12.4425	1.27
2.58161	1.69671	2.28824	23.4591	2689.87	0.000546974	12.2269	1.27
2.64581	1.71049	2.29963	23.0084	2678.8	0.000538682	12.0078	1.27
2.71036	1.72409	2.31116	22.5607	2667.63	0.000530411	11.7807	1.27
2.77527	1.73749	2.32295	22.1115	2656.25	0.000522077	11.5421	1.27
2.8406	1.75069	2.33481	21.6681	2644.84	0.000513817	11.2982	1.27
2.90627	1.76366	2.34678	21.2296	2633.37	0.000505613	11.0474	1.27
2.97247	1.77643	2.35861	20.8044	2622.07	0.000497621	10.7985	1.27
3.03896	1.78898	2.36958	20.4175	2611.62	0.000490319	10.5713	1.27
3.10584	1.80132	2.38062	20.0352	2601.15	0.000483077	10.3394	1.27
3.1731	1.81345	2.39177	19.656	2590.6	0.000475862	10.1014	1.27
3.24078	1.82537	2.40264	19.293	2580.36	0.000468928	9.86919	1.27
3.37728	1.84856	2.42366	18.6096	2560.65	0.000455799	9.41819	1.27
3.51532	1.8709	2.44448	17.9559	2541.26	0.000443146	8.96396	1.27
3.65481	1.89235	2.46448	17.3489	2522.74	0.000431306	8.52439	1.27
3.79583	1.91293	2.48427	16.7684	2504.56	0.000419902	8.08354	1.27
3.93828	1.93263	2.50328	16.2285	2487.19	0.00040922	7.65717	1.27
4.08209	1.95142	2.52195	15.7146	2470.23	0.000398981	7.23263	1.27
4.12219	1.95646	2.52708	15.5764	2465.6	0.000396215	7.11579	1.27
zone t="RRC BD"
0.236408	1.03573	1.67883	63.6552	3325.81	0.00120039	17.1881	1.27
0.236954	1.03554	1.67895	63.643	3325.68	0.00120021	17.1896	1.27
0.245466	1.03255	1.68096	63.4462	3323.49	0.00119729	17.2108	1.27
0.254203	1.0295	1.68307	63.2389	3321.18	0.0011942	17.2307	1.27
0.263165	1.02638	1.6853	63.0213	3318.75	0.00119097	17.2495	1.27
0.27235	1.0232	1.68764	62.7937	3316.19	0.00118758	17.2672	1.27
0.281756	1.01995	1.69009	62.5563	3313.52	0.00118404	17.2837	1.27
0.291382	1.01665	1.69264	62.3093	3310.74	0.00118036	17.2993	1.27
0.301227	1.01328	1.6953	62.053	3307.84	0.00117654	17.3138	1.27
0.311288	1.00986	1.69806	61.7877	3304.83	0.00117257	17.3274	1.27
0.321563	1.00638	1.70092	61.5136	3301.7	0.00116848	17.3401	1.27
0.332051	1.00284	1.70388	61.2309	3298.47	0.00116425	17.3518	1.27
0.342749	0.999254	1.70695	60.94	3295.13	0.00115989	17.3627	1.27
0.353655	0.995615	1.71011	60.6409	3291.69	0.0011554	17.3728	1.27
0.364767	0.991925	1.71336	60.334	3288.14	0.0011508	17.3821	1.27
0.376082	0.988187	1.71672	60.0194	3284.49	0.00114607	17.3905	1.27
0.387599	0.984402	1.72017	59.6974	3280.73	0.00114122	17.3981	1.27
0.399316	0.980572	1.72371	59.3679	3276.88	0.00113626	17.405	1.27
0.41123	0.976699	1.72735	59.0313	3272.92	0.00113119	17.411	1.27
0.423339	0.972784	1.73108	58.6877	3268.86	0.001126	17.4162	1.27
0.435643	0.968827	1.73491	58.337	3264.7	0.0011207	17.4205	1.27
0.44814	0.964832	1.73883	57.9794	3260.43	0.00111528	17.424	1.27
0.460827	0.960799	1.74285	57.615	3256.06	0.00110976	17.4265	1.27
0.473704	0.956729	1.74696	57.2439	3251.59	0.00110413	17.4281	1.27
0.48677	0.952624	1.75118	56.866	3247.02	0.00109838	17.4287	1.27
0.500024	0.948484	1.75549	56.4813	3242.34	0.00109253	17.4282	1.27
0.513465	0.944311	1.7599	56.09	3237.55	0.00108657	17.4266	1.27
0.527092	0.940106	1.76442	55.6919	3232.65	0.00108049	17.4238	1.27
0.540905	0.935869	1.76904	55.2871	3227.64	0.0010743	17.4199	1.27
0.554903	0.931602	1.77377	54.8757	3222.52	0.001068	17.4146	1.27
0.569087	0.927306	1.7786	54.4575	3217.28	0.00106159	17.4079	1.27
0.583455	0.922981	1.78355	54.0327	3211.93	0.00105506	17.3998	1.27
0.598008	0.918628	1.7886	53.6012	3206.46	0.00104842	17.3902	1.27
0.612746	0.914247	1.79377	53.1631	3200.87	0.00104167	17.379	1.27
0.627667	0.909841	1.79906	52.7183	3195.16	0.0010348	17.3662	1.27
0.642773	0.905408	1.80447	52.2669	3189.32	0.00102782	17.3517	1.27
0.658064	0.900951	1.80999	51.8091	3183.36	0.00102072	17.3354	1.27
0.673538	0.896469	1.81563	51.3448	3177.27	0.00101351	17.3172	1.27
0.689195	0.891964	1.8214	50.8741	3171.06	0.00100619	17.2972	1.27
0.705036	0.887435	1.82729	50.3972	3164.72	0.000998754	17.2752	1.27
0.721059	0.882885	1.83331	49.9142	3158.24	0.00099121	17.2512	1.27
0.737264	0.878313	1.83945	49.4253	3151.64	0.000983556	17.2252	1.27
0.753651	0.87372	1.84572	48.9305	3144.91	0.000975795	17.197	1.27
0.770217	0.869107	1.85212	48.4301	3138.04	0.000967929	17.1667	1.27
0.786529	0.864594	1.85818	47.9605	3131.55	0.000960532	17.145	1.27
0.802162	0.860299	1.86353	47.5489	3125.81	0.000954035	17.1394	1.27
0.817926	0.855997	1.86908	47.1257	3119.88	0.000947342	17.1291	1.27
0.833549	0.851761	1.87451	46.7143	3114.07	0.000940825	17.1214	1.27
0.849583	0.847444	1.88034	46.2766	3107.84	0.000933877	17.1054	1.27
0.865442	0.843202	1.88599	45.8556	3101.81	0.000927181	17.0936	1.27
0.88186	0.83884	1.89215	45.4	3095.23	0.000919918	17.0713	1.27
0.897926	0.834599	1.89797	44.9737	3089.03	0.00091311	17.0567	1.27
0.914529	0.830246	1.90429	44.5152	3082.31	0.000905773	17.032	1.27
0.931196	0.825905	1.91065	44.0576	3075.55	0.000898434	17.0068	1.27
0.947804	0.821608	1.91695	43.6086	3068.85	0.000891216	16.9831	1.27
0.964951	0.8172	1.92374	43.129	3061.65	0.000883488	16.9494	1.27
0.9818	0.812897	1.93025	42.6736	3054.75	0.000876135	16.9218	1.27
0.998896	0.80856	1.93699	42.2066	3047.61	0.000868576	16.8895	1.27
1.01647	0.80413	1.94418	41.7142	3040.01	0.000860588	16.8482	1.27
1.0336	0.799837	1.95097	41.2533	3032.84	0.000853091	16.815	1.27
1.05103	0.795501	1.95804	40.7786	3025.39	0.000845353	16.7762	1.27
1.0689	0.791079	1.96553	40.2806	3017.5	0.000837214	16.7285	1.27
1.08649	0.786754	1.97278	39.804	3009.87	0.000829404	16.6856	1.27
1.10404	0.782465	1.98003	39.3328	3002.26	0.000821662	16.6426	1.27
1.12209	0.778081	1.98775	38.8361	2994.16	0.000813481	16.5895	1.27
1.14031	0.773682	1.99566	38.3337	2985.88	0.000805184	16.5325	1.27
1.15777	0.76949	2.00292	37.8771	2978.28	0.000797622	16.4879	1.27
1.17584	0.765175	2.01079	37.3885	2970.07	0.000789509	16.4307	1.27
1.19422	0.76081	2.01897	36.8862	2961.55	0.000781147	16.3666	1.27
1.21237	0.756524	2.027	36.3994	2953.19	0.000773018	16.3049	1.27
1.2301	0.752359	2.03471	35.9369	2945.18	0.000765273	16.2485	1.27
1.24832	0.748098	2.04294	35.45	2936.65	0.000757096	16.1812	1.27
1.26675	0.743811	2.05141	34.9547	2927.88	0.000748756	16.108	1.27
1.28493	0.739602	2.05975	34.4736	2919.26	0.000740628	16.0364	1.27
1.30136	0.735815	2.06718	34.0501	2911.6	0.000733455	15.975	1.27
1.3055	0.734861	2.06975	33.9048	2908.95	0.000730989	15.9374	1.27
1.31209	0.733347	2.07342	33.6978	2905.17	0.000727473	15.8904	1.27
1.32095	0.73131	2.07805	33.4391	2900.41	0.000723072	15.8373	1.27
1.33131	0.728936	2.08289	33.1703	2895.44	0.000718491	15.7931	1.27
1.34426	0.725974	2.08891	32.8383	2889.26	0.000712824	15.7385	1.27
1.35981	0.722429	2.0961	32.4463	2881.89	0.000706114	15.6743	1.27
1.37786	0.718331	2.10435	32.0021	2873.45	0.000698492	15.6028	1.27
1.39845	0.713675	2.11369	31.5056	2863.92	0.000689944	15.5232	1.27
1.42187	0.708405	2.12437	30.947	2853.05	0.000680294	15.431	1.27
1.44861	0.702419	2.13682	30.3074	2840.41	0.000669198	15.3174	1.27
1.47928	0.695587	2.15178	29.5551	2825.27	0.000656084	15.1654	1.27
1.51807	0.686983	2.1723	28.5515	2804.59	0.000638477	14.9216	1.27
1.56875	0.675766	2.20053	27.2233	2776.34	0.000614973	14.5555	1.27
1.60985	0.666691	2.22096	26.2985	2756.01	0.000598462	14.3318	1.27
1.65952	0.655747	2.24756	25.1389	2729.71	0.000577584	14.0003	1.27
1.70477	0.645797	2.27017	24.1917	2707.52	0.00056038	13.7455	1.27
1.75677	0.634371	2.29754	23.0904	2680.83	0.000540194	13.4079	1.27
1.80682	0.623377	2.32273	22.1197	2656.46	0.000522231	13.1154	1.27
1.86236	0.611169	2.35163	21.054	2628.72	0.000502316	12.7596	1.27
1.91761	0.599007	2.37953	20.0725	2602.18	0.000483784	12.4282	1.27
1.97763	0.585763	2.41046	19.036	2573.01	0.000464002	12.0469	1.27
2.03861	0.572263	2.44121	18.0569	2544.29	0.000445107	11.6758	1.27
2.10404	0.557711	2.47459	17.0498	2513.43	0.000425441	11.2635	1.27
2.17144	0.542637	2.50842	16.0855	2482.51	0.000406377	10.8515	1.27
2.2433	0.526455	2.54465	15.1116	2449.77	0.000386876	10.4038	1.27
2.31807	0.509485	2.58183	14.1729	2416.6	0.000367825	9.94899	1.27
2.39759	0.491271	2.62136	13.2379	2381.79	0.000348581	9.4617	1.27
2.48094	0.471977	2.66225	12.335	2346.28	0.00032972	8.9618	1.27
2.56959	0.451216	2.70556	11.4456	2309.25	0.000310852	8.43102	1.27
2.66312	0.429025	2.75063	10.5878	2271.32	0.000292358	7.88316	1.27
2.76276	0.40504	2.79829	9.75094	2231.9	0.000274005	7.30486	1.27
2.86849	0.379184	2.84812	8.94685	2191.44	0.000256052	6.7057	1.27
2.9815	0.351072	2.90079	8.16952	2149.5	0.000238367	6.07562	1.27
3.10212	0.320505	2.95609	7.42674	2106.38	0.000221131	5.42126	1.27
3.23158	0.287035	3.01461	6.71527	2061.76	0.000204274	4.73472	1.27
3.37063	0.250314	3.07629	6.0403	2015.85	0.000187926	4.02055	1.27
3.52068	0.209774	3.1417	5.40009	1968.4	0.000172058	3.27214	1.27
3.68294	0.164865	3.21091	4.79806	1919.55	0.000156767	2.49245	1.27
3.8592	0.114815	3.28455	4.23299	1869.09	0.000142038	1.67408	1.27
4.05125	0.0587894	3.36248	3.7094	1817.35	0.000128012	0.82709	1.27
4.12219	0.0376664	3.39059	3.53743	1799.1	0.000124804	0.531004	1.27
zone t="LRC DE"
0.525849	0.290334	1.30109	109.729	3738.15	0.00184518	3.5069	1.27
0.485241	0.028687	1.19131	126.884	3854.08	0.00206801	0.0476248	1.27
0.486875	0.0315218	1.19251	126.688	3852.83	0.00206551	0.0754269	1.27
0.489568	0.0361769	1.19451	126.363	3850.75	0.00206135	0.121515	1.27
0.493278	0.0425546	1.1973	125.91	3847.85	0.00205555	0.185549	1.27
0.497949	0.0505297	1.20086	125.333	3844.14	0.00204815	0.267111	1.27
0.503521	0.0599587	1.20519	124.633	3839.63	0.00203917	0.365747	1.27
0.509925	0.0706886	1.21027	123.814	3834.32	0.00202865	0.481005	1.27
0.517095	0.0825654	1.21609	122.879	3828.23	0.00201664	0.612477	1.27
0.524964	0.0954404	1.22263	121.833	3821.38	0.00200315	0.759816	1.27
0.533472	0.109175	1.22989	120.678	3813.76	0.00198825	0.922762	1.27
0.542562	0.123645	1.23784	119.419	3805.39	0.00197197	1.10115	1.27
0.552186	0.13874	1.24649	118.059	3796.27	0.00195434	1.29489	1.27
0.562299	0.154365	1.25582	116.601	3786.42	0.0019354	1.50402	1.27
0.572866	0.170439	1.26583	115.048	3775.82	0.00191517	1.72865	1.27
0.583856	0.186898	1.27652	113.404	3764.47	0.00189369	1.96895	1.27
0.595244	0.203687	1.28788	111.671	3752.38	0.00187097	2.22521	1.27
0.607012	0.220764	1.29992	109.851	3739.53	0.00184705	2.49775	1.27
0.619143	0.238097	1.31265	107.947	3725.91	0.00182193	2.78697	1.27
0.631626	0.255663	1.32607	105.961	3711.51	0.00179563	3.09334	1.27
0.644456	0.273445	1.3402	103.895	3696.32	0.00176817	3.41734	1.27
0.657627	0.291435	1.35506	101.751	3680.3	0.00173955	3.75955	1.27
0.671139	0.309628	1.37065	99.5314	3663.45	0.00170978	4.12056	1.27
0.684992	0.328027	1.38699	97.2376	3645.74	0.00167888	4.501	1.27
0.699191	0.346637	1.40412	94.8718	3627.13	0.00164685	4.90157	1.27
0.713741	0.365469	1.42206	92.4363	3607.61	0.0016137	5.32296	1.27
0.72865	0.384535	1.44083	89.9331	3587.14	0.00157944	5.76597	1.27
0.743928	0.403854	1.46047	87.3646	3565.68	0.00154408	6.23137	1.27
0.759585	0.423446	1.481	84.7334	3543.19	0.00150764	6.72001	1.27
0.775634	0.443335	1.50248	82.0422	3519.65	0.00147013	7.23275	1.27
0.792091	0.463549	1.52493	79.2943	3494.99	0.00143155	7.77051	1.27
0.808971	0.484117	1.54841	76.4927	3469.19	0.00139194	8.33426	1.27
0.826291	0.505074	1.57296	73.6412	3442.18	0.00135132	8.92501	1.27
0.844072	0.526459	1.59865	70.7438	3413.93	0.00130971	9.54382	1.27
0.862335	0.548313	1.62552	67.8048	3384.36	0.00126713	10.1918	1.27
0.881104	0.570684	1.65364	64.8288	3353.43	0.00122364	10.8702	1.27
0.900404	0.593624	1.68309	61.8209	3321.06	0.00117925	11.5802	1.27
0.920263	0.617192	1.71395	58.7867	3287.2	0.00113403	12.3232	1.27
0.940713	0.641451	1.74631	55.7321	3251.76	0.00108801	13.1007	1.27
0.961788	0.666475	1.78025	52.6634	3214.68	0.00104125	13.9141	1.27
0.983525	0.692345	1.8159	49.5874	3175.85	0.00099381	14.7652	1.27
1.00597	0.719154	1.85338	46.5113	3135.2	0.000945762	15.6559	1.27
1.02916	0.747005	1.89283	43.4428	3092.62	0.000897178	16.5881	1.27
1.04118	0.761516	1.91357	41.8972	3070.33	0.000872441	17.0758	1.27
1.97763	0.585763	2.41046	19.036	2573.01	0.000464002	12.0469	1.27
1.99326	0.597323	2.41255	18.968	2571.05	0.000462697	11.9455	1.27
2.00891	0.608853	2.41458	18.9018	2569.14	0.000461426	11.8472	1.27
2.04035	0.631858	2.41852	18.7746	2565.46	0.000458979	11.6587	1.27
2.0719	0.654756	2.42228	18.6538	2561.94	0.000456652	11.4805	1.27
2.10355	0.677551	2.42588	18.5389	2558.58	0.000454436	11.3118	1.27
2.13531	0.700249	2.42933	18.4294	2555.36	0.000452322	11.1516	1.27
2.16716	0.722854	2.43264	18.325	2552.27	0.000450301	10.9992	1.27
2.1991	0.74537	2.43582	18.2251	2549.31	0.000448368	10.854	1.27
2.23113	0.767802	2.43888	18.1295	2546.46	0.000446515	10.7155	1.27
2.26324	0.790152	2.44183	18.0379	2543.72	0.000444737	10.583	1.27
2.29543	0.812424	2.44467	17.9499	2541.08	0.000443029	10.4562	1.27
2.32769	0.834621	2.44742	17.8654	2538.53	0.000441386	10.3346	1.27
2.36003	0.856746	2.45007	17.7841	2536.07	0.000439804	10.2179	1.27
2.39244	0.878801	2.45264	17.7058	2533.69	0.000438278	10.1057	1.27
2.42492	0.90079	2.45512	17.6304	2531.39	0.000436807	9.99782	1.27
2.45746	0.922714	2.45753	17.5576	2529.16	0.000435386	9.89386	1.27
2.49006	0.944575	2.45987	17.4872	2527.01	0.000434012	9.79363	1.27
2.52273	0.966377	2.46213	17.4192	2524.91	0.000432683	9.6969	1.27
2.55545	0.988119	2.46433	17.3535	2522.88	0.000431396	9.60345	1.27
2.58823	1.00981	2.46647	17.2898	2520.91	0.000430149	9.5131	1.27
2.62106	1.03144	2.46855	17.2281	2519	0.00042894	9.42567	1.27
2.65395	1.05302	2.47057	17.1683	2517.14	0.000427767	9.341	1.27
2.68689	1.07454	2.47254	17.1103	2515.33	0.000426628	9.25894	1.27
2.71988	1.09602	2.47445	17.0539	2513.56	0.000425521	9.17937	1.27
2.75292	1.11745	2.47632	16.9992	2511.84	0.000424446	9.10214	1.27
2.786	1.13883	2.47815	16.946	2510.17	0.000423399	9.02714	1.27
2.81913	1.16016	2.47992	16.8942	2508.54	0.000422381	8.95426	1.27
2.8523	1.18145	2.48166	16.8439	2506.95	0.000421389	8.88339	1.27
2.88552	1.20269	2.48335	16.7948	2505.39	0.000420423	8.81445	1.27
2.91878	1.2239	2.48501	16.747	2503.88	0.000419481	8.74735	1.27
2.95208	1.24506	2.48662	16.7005	2502.4	0.000418562	8.68199	1.27
2.98541	1.26618	2.48821	16.6551	2500.95	0.000417666	8.61831	1.27
3.01879	1.28726	2.48975	16.6108	2499.53	0.000416791	8.55622	1.27
3.05221	1.3083	2.49127	16.5676	2498.15	0.000415937	8.49567	1.27
3.08566	1.32931	2.49275	16.5254	2496.79	0.000415102	8.43658	1.27
3.11915	1.35027	2.4942	16.4841	2495.47	0.000414286	8.3789	1.27
3.15267	1.37121	2.49562	16.4438	2494.17	0.000413489	8.32257	1.27
3.18623	1.3921	2.49701	16.4045	2492.9	0.000412709	8.26753	1.27
3.21982	1.41296	2.49838	16.3659	2491.65	0.000411946	8.21373	1.27
3.25345	1.43379	2.49972	16.3283	2490.43	0.000411199	8.16113	1.27
3.2871	1.45459	2.50103	16.2914	2489.24	0.000410468	8.10968	1.27
3.32079	1.47535	2.50232	16.2553	2488.06	0.000409752	8.05933	1.27
3.35451	1.49608	2.50358	16.22	2486.91	0.00040905	8.01006	1.27
3.38826	1.51678	2.50482	16.1854	2485.78	0.000408362	7.96181	1.27
3.42204	1.53745	2.50604	16.1514	2484.67	0.000407688	7.91455	1.27
3.45584	1.55809	2.50724	16.1182	2483.59	0.000407027	7.86824	1.27
3.48968	1.5787	2.50841	16.0856	2482.52	0.000406379	7.82286	1.27
3.52354	1.59928	2.50957	16.0536	2481.47	0.000405743	7.77837	1.27
3.55743	1.61983	2.5107	16.0223	2480.44	0.000405119	7.73474	1.27
3.59135	1.64035	2.51182	15.9915	2479.42	0.000404506	7.69195	1.27
3.62529	1.66085	2.51291	15.9613	2478.43	0.000403904	7.64996	1.27
3.65926	1.68132	2.51399	15.9316	2477.45	0.000403314	7.60875	1.27
3.69326	1.70176	2.51506	15.9025	2476.48	0.000402733	7.56829	1.27
3.76136	1.7426	2.51713	15.8458	2474.6	0.000401602	7.4895	1.27
3.82956	1.78333	2.51914	15.791	2472.78	0.000400508	7.41347	1.27
3.89785	1.82397	2.52109	15.7381	2471.02	0.000399451	7.34002	1.27
3.96623	1.86451	2.52298	15.6869	2469.31	0.000398427	7.26902	1.27
4.0347	1.90497	2.52481	15.6374	2467.65	0.000397436	7.20031	1.27
4.10325	1.94533	2.5266	15.5894	2466.03	0.000396475	7.13379	1.27
4.12219	1.95646	2.52708	15.5764	2465.6	0.000396215	7.11579	1.27
